 Entering Gaussian System, Link 0=g09
 Input=C2H6.gjf
 Output=C2H6.log
 Initial command:
 /home/gaussian/g09/l1.exe "/tmp/Gau-4548.inp" -scrdir="/tmp/"
 Entering Link 1 = /home/gaussian/g09/l1.exe PID=      4549.
  
 Copyright (c) 1988,1990,1992,1993,1995,1998,2003,2009,2013,
            Gaussian, Inc.  All Rights Reserved.
  
 This is part of the Gaussian(R) 09 program.  It is based on
 the Gaussian(R) 03 system (copyright 2003, Gaussian, Inc.),
 the Gaussian(R) 98 system (copyright 1998, Gaussian, Inc.),
 the Gaussian(R) 94 system (copyright 1995, Gaussian, Inc.),
 the Gaussian 92(TM) system (copyright 1992, Gaussian, Inc.),
 the Gaussian 90(TM) system (copyright 1990, Gaussian, Inc.),
 the Gaussian 88(TM) system (copyright 1988, Gaussian, Inc.),
 the Gaussian 86(TM) system (copyright 1986, Carnegie Mellon
 University), and the Gaussian 82(TM) system (copyright 1983,
 Carnegie Mellon University). Gaussian is a federally registered
 trademark of Gaussian, Inc.
  
 This software contains proprietary and confidential information,
 including trade secrets, belonging to Gaussian, Inc.
  
 This software is provided under written license and may be
 used, copied, transmitted, or stored only in accord with that
 written license.
  
 The following legend is applicable only to US Government
 contracts under FAR:
  
                    RESTRICTED RIGHTS LEGEND
  
 Use, reproduction and disclosure by the US Government is
 subject to restrictions as set forth in subparagraphs (a)
 and (c) of the Commercial Computer Software - Restricted
 Rights clause in FAR 52.227-19.
  
 Gaussian, Inc.
 340 Quinnipiac St., Bldg. 40, Wallingford CT 06492
  
  
 ---------------------------------------------------------------
 Warning -- This program may not be used in any manner that
 competes with the business of Gaussian, Inc. or will provide
 assistance to any competitor of Gaussian, Inc.  The licensee
 of this program is prohibited from giving any competitor of
 Gaussian, Inc. access to this program.  By using this program,
 the user acknowledges that Gaussian, Inc. is engaged in the
 business of creating and licensing software in the field of
 computational chemistry and represents and warrants to the
 licensee that it is not a competitor of Gaussian, Inc. and that
 it will not use this program in any manner prohibited above.
 ---------------------------------------------------------------
  

 Cite this work as:
 Gaussian 09, Revision D.01,
 M. J. Frisch, G. W. Trucks, H. B. Schlegel, G. E. Scuseria, 
 M. A. Robb, J. R. Cheeseman, G. Scalmani, V. Barone, B. Mennucci, 
 G. A. Petersson, H. Nakatsuji, M. Caricato, X. Li, H. P. Hratchian, 
 A. F. Izmaylov, J. Bloino, G. Zheng, J. L. Sonnenberg, M. Hada, 
 M. Ehara, K. Toyota, R. Fukuda, J. Hasegawa, M. Ishida, T. Nakajima, 
 Y. Honda, O. Kitao, H. Nakai, T. Vreven, J. A. Montgomery, Jr., 
 J. E. Peralta, F. Ogliaro, M. Bearpark, J. J. Heyd, E. Brothers, 
 K. N. Kudin, V. N. Staroverov, T. Keith, R. Kobayashi, J. Normand, 
 K. Raghavachari, A. Rendell, J. C. Burant, S. S. Iyengar, J. Tomasi, 
 M. Cossi, N. Rega, J. M. Millam, M. Klene, J. E. Knox, J. B. Cross, 
 V. Bakken, C. Adamo, J. Jaramillo, R. Gomperts, R. E. Stratmann, 
 O. Yazyev, A. J. Austin, R. Cammi, C. Pomelli, J. W. Ochterski, 
 R. L. Martin, K. Morokuma, V. G. Zakrzewski, G. A. Voth, 
 P. Salvador, J. J. Dannenberg, S. Dapprich, A. D. Daniels, 
 O. Farkas, J. B. Foresman, J. V. Ortiz, J. Cioslowski, 
 and D. J. Fox, Gaussian, Inc., Wallingford CT, 2013.
 
 ******************************************
 Gaussian 09:  EM64L-G09RevD.01 24-Apr-2013
                30-Nov-2016 
 ******************************************
 %chk=C2H6.chk
 %nprocs=4
 Will use up to    4 processors via shared memory.
 ---------------------------------------------------------------------
 #p opt freq=noraman b3lyp/6-31g* gfinput pop=(full,nboread) formcheck
 ---------------------------------------------------------------------
 1/14=-1,18=20,19=15,26=3,38=1/1,3;
 2/9=110,12=2,17=6,18=5,40=1/2;
 3/5=1,6=6,7=1,11=2,16=1,24=10,25=1,30=1,71=1,74=-5/1,2,3;
 4//1;
 5/5=2,38=5/2;
 6/7=3,28=1,40=2/1,7;
 7//1,2,3,16;
 1/14=-1,18=20,19=15,26=3/3(2);
 2/9=110/2;
 99//99;
 2/9=110/2;
 3/5=1,6=6,7=1,11=2,16=1,25=1,30=1,71=1,74=-5/1,2,3;
 4/5=5,16=3,69=1/1;
 5/5=2,38=5/2;
 7//1,2,3,16;
 1/14=-1,18=20,19=15,26=3/3(-5);
 2/9=110/2;
 6/7=3,19=2,28=1,40=2/1,7;
 99/9=1/99;
 Leave Link    1 at Wed Nov 30 16:29:06 2016, MaxMem=           0 cpu:         0.3
 (Enter /home/gaussian/g09/l101.exe)
 -------------------
 Title Card Required
 -------------------
 Symbolic Z-matrix:
 Charge =  0 Multiplicity = 1
 C                    -1.45078   3.42487   0. 
 H                    -1.0941    3.92927   0.87365 
 H                    -1.0941    3.92927  -0.87365 
 H                    -2.52078   3.42488   0. 
 C                    -0.93746   1.97294   0. 
 H                    -1.29414   1.46854  -0.87365 
 H                     0.13254   1.97293  0. 
 H                    -1.29413   1.46854   0.87365 
 
 NAtoms=      8 NQM=        8 NQMF=       0 NMMI=      0 NMMIF=      0
                NMic=       0 NMicF=      0.
                    Isotopes and Nuclear Properties:
 (Nuclear quadrupole moments (NQMom) in fm**2, nuclear magnetic moments (NMagM)
  in nuclear magnetons)

  Atom         1           2           3           4           5           6           7           8
 IAtWgt=          12           1           1           1          12           1           1           1
 AtmWgt=  12.0000000   1.0078250   1.0078250   1.0078250  12.0000000   1.0078250   1.0078250   1.0078250
 NucSpn=           0           1           1           1           0           1           1           1
 AtZEff=   0.0000000   0.0000000   0.0000000   0.0000000   0.0000000   0.0000000   0.0000000   0.0000000
 NQMom=    0.0000000   0.0000000   0.0000000   0.0000000   0.0000000   0.0000000   0.0000000   0.0000000
 NMagM=    0.0000000   2.7928460   2.7928460   2.7928460   0.0000000   2.7928460   2.7928460   2.7928460
 AtZNuc=   6.0000000   1.0000000   1.0000000   1.0000000   6.0000000   1.0000000   1.0000000   1.0000000
 Leave Link  101 at Wed Nov 30 16:29:06 2016, MaxMem=    33554432 cpu:         0.6
 (Enter /home/gaussian/g09/l103.exe)

 GradGradGradGradGradGradGradGradGradGradGradGradGradGradGradGradGradGrad
 Berny optimization.
 Initialization pass.
                           ----------------------------
                           !    Initial Parameters    !
                           ! (Angstroms and Degrees)  !
 --------------------------                            --------------------------
 ! Name  Definition              Value          Derivative Info.                !
 --------------------------------------------------------------------------------
 ! R1    R(1,2)                  1.07           estimate D2E/DX2                !
 ! R2    R(1,3)                  1.07           estimate D2E/DX2                !
 ! R3    R(1,4)                  1.07           estimate D2E/DX2                !
 ! R4    R(1,5)                  1.54           estimate D2E/DX2                !
 ! R5    R(5,6)                  1.07           estimate D2E/DX2                !
 ! R6    R(5,7)                  1.07           estimate D2E/DX2                !
 ! R7    R(5,8)                  1.07           estimate D2E/DX2                !
 ! A1    A(2,1,3)              109.4713         estimate D2E/DX2                !
 ! A2    A(2,1,4)              109.4712         estimate D2E/DX2                !
 ! A3    A(2,1,5)              109.4712         estimate D2E/DX2                !
 ! A4    A(3,1,4)              109.4712         estimate D2E/DX2                !
 ! A5    A(3,1,5)              109.4712         estimate D2E/DX2                !
 ! A6    A(4,1,5)              109.4712         estimate D2E/DX2                !
 ! A7    A(1,5,6)              109.4712         estimate D2E/DX2                !
 ! A8    A(1,5,7)              109.4712         estimate D2E/DX2                !
 ! A9    A(1,5,8)              109.4712         estimate D2E/DX2                !
 ! A10   A(6,5,7)              109.4713         estimate D2E/DX2                !
 ! A11   A(6,5,8)              109.4712         estimate D2E/DX2                !
 ! A12   A(7,5,8)              109.4712         estimate D2E/DX2                !
 ! D1    D(2,1,5,6)            179.9999         estimate D2E/DX2                !
 ! D2    D(2,1,5,7)            -60.0            estimate D2E/DX2                !
 ! D3    D(2,1,5,8)             60.0            estimate D2E/DX2                !
 ! D4    D(3,1,5,6)            -60.0            estimate D2E/DX2                !
 ! D5    D(3,1,5,7)             60.0            estimate D2E/DX2                !
 ! D6    D(3,1,5,8)            180.0            estimate D2E/DX2                !
 ! D7    D(4,1,5,6)             60.0            estimate D2E/DX2                !
 ! D8    D(4,1,5,7)            180.0            estimate D2E/DX2                !
 ! D9    D(4,1,5,8)            -60.0            estimate D2E/DX2                !
 --------------------------------------------------------------------------------
 Trust Radius=3.00D-01 FncErr=1.00D-07 GrdErr=1.00D-06
 Number of steps in this run=     38 maximum allowed number of steps=    100.
 GradGradGradGradGradGradGradGradGradGradGradGradGradGradGradGradGradGrad

 Leave Link  103 at Wed Nov 30 16:29:06 2016, MaxMem=    33554432 cpu:         0.0
 (Enter /home/gaussian/g09/l202.exe)
                          Input orientation:                          
 ---------------------------------------------------------------------
 Center     Atomic      Atomic             Coordinates (Angstroms)
 Number     Number       Type             X           Y           Z
 ---------------------------------------------------------------------
      1          6           0       -1.450777    3.424870    0.000000
      2          1           0       -1.094104    3.929269    0.873652
      3          1           0       -1.094104    3.929269   -0.873652
      4          1           0       -2.520777    3.424884    0.000000
      5          6           0       -0.937462    1.972938    0.000000
      6          1           0       -1.294135    1.468540   -0.873651
      7          1           0        0.132538    1.972926   -0.000001
      8          1           0       -1.294134    1.468540    0.873652
 ---------------------------------------------------------------------
                    Distance matrix (angstroms):
                    1          2          3          4          5
     1  C    0.000000
     2  H    1.070000   0.000000
     3  H    1.070000   1.747303   0.000000
     4  H    1.070000   1.747303   1.747303   0.000000
     5  C    1.540000   2.148263   2.148263   2.148263   0.000000
     6  H    2.148263   3.024610   2.468846   2.468845   1.070000
     7  H    2.148263   2.468846   2.468845   3.024610   1.070000
     8  H    2.148263   2.468845   3.024610   2.468846   1.070000
                    6          7          8
     6  H    0.000000
     7  H    1.747303   0.000000
     8  H    1.747303   1.747303   0.000000
 Stoichiometry    C2H6
 Framework group  D3D[C3(C.C),3SGD(H2)]
 Deg. of freedom     3
 Full point group                 D3D     NOp  12
 Largest Abelian subgroup         C2H     NOp   4
 Largest concise Abelian subgroup C2H     NOp   4
                         Standard orientation:                         
 ---------------------------------------------------------------------
 Center     Atomic      Atomic             Coordinates (Angstroms)
 Number     Number       Type             X           Y           Z
 ---------------------------------------------------------------------
      1          6           0        0.000000    0.000000    0.770000
      2          1           0        0.000000    1.008806    1.126666
      3          1           0       -0.873651   -0.504403    1.126666
      4          1           0        0.873651   -0.504403    1.126666
      5          6           0        0.000000    0.000000   -0.770000
      6          1           0        0.000000   -1.008806   -1.126666
      7          1           0       -0.873651    0.504403   -1.126666
      8          1           0        0.873651    0.504403   -1.126666
 ---------------------------------------------------------------------
 Rotational constants (GHZ):     82.1231558     20.2293876     20.2293876
 Leave Link  202 at Wed Nov 30 16:29:06 2016, MaxMem=    33554432 cpu:         0.0
 (Enter /home/gaussian/g09/l301.exe)
 Standard basis: 6-31G(d) (6D, 7F)
 Ernie: Thresh=  0.10000D-02 Tol=  0.10000D-05 Strict=F.
 AO basis set in the form of general basis input (Overlap normalization):
      1 0
 S   6 1.00       0.000000000000
      0.3047524880D+04  0.1834737132D-02
      0.4573695180D+03  0.1403732281D-01
      0.1039486850D+03  0.6884262226D-01
      0.2921015530D+02  0.2321844432D+00
      0.9286662960D+01  0.4679413484D+00
      0.3163926960D+01  0.3623119853D+00
 SP   3 1.00       0.000000000000
      0.7868272350D+01 -0.1193324198D+00  0.6899906659D-01
      0.1881288540D+01 -0.1608541517D+00  0.3164239610D+00
      0.5442492580D+00  0.1143456438D+01  0.7443082909D+00
 SP   1 1.00       0.000000000000
      0.1687144782D+00  0.1000000000D+01  0.1000000000D+01
 D   1 1.00       0.000000000000
      0.8000000000D+00  0.1000000000D+01
 ****
      2 0
 S   3 1.00       0.000000000000
      0.1873113696D+02  0.3349460434D-01
      0.2825394365D+01  0.2347269535D+00
      0.6401216923D+00  0.8137573261D+00
 S   1 1.00       0.000000000000
      0.1612777588D+00  0.1000000000D+01
 ****
      3 0
 S   3 1.00       0.000000000000
      0.1873113696D+02  0.3349460434D-01
      0.2825394365D+01  0.2347269535D+00
      0.6401216923D+00  0.8137573261D+00
 S   1 1.00       0.000000000000
      0.1612777588D+00  0.1000000000D+01
 ****
      4 0
 S   3 1.00       0.000000000000
      0.1873113696D+02  0.3349460434D-01
      0.2825394365D+01  0.2347269535D+00
      0.6401216923D+00  0.8137573261D+00
 S   1 1.00       0.000000000000
      0.1612777588D+00  0.1000000000D+01
 ****
      5 0
 S   6 1.00       0.000000000000
      0.3047524880D+04  0.1834737132D-02
      0.4573695180D+03  0.1403732281D-01
      0.1039486850D+03  0.6884262226D-01
      0.2921015530D+02  0.2321844432D+00
      0.9286662960D+01  0.4679413484D+00
      0.3163926960D+01  0.3623119853D+00
 SP   3 1.00       0.000000000000
      0.7868272350D+01 -0.1193324198D+00  0.6899906659D-01
      0.1881288540D+01 -0.1608541517D+00  0.3164239610D+00
      0.5442492580D+00  0.1143456438D+01  0.7443082909D+00
 SP   1 1.00       0.000000000000
      0.1687144782D+00  0.1000000000D+01  0.1000000000D+01
 D   1 1.00       0.000000000000
      0.8000000000D+00  0.1000000000D+01
 ****
      6 0
 S   3 1.00       0.000000000000
      0.1873113696D+02  0.3349460434D-01
      0.2825394365D+01  0.2347269535D+00
      0.6401216923D+00  0.8137573261D+00
 S   1 1.00       0.000000000000
      0.1612777588D+00  0.1000000000D+01
 ****
      7 0
 S   3 1.00       0.000000000000
      0.1873113696D+02  0.3349460434D-01
      0.2825394365D+01  0.2347269535D+00
      0.6401216923D+00  0.8137573261D+00
 S   1 1.00       0.000000000000
      0.1612777588D+00  0.1000000000D+01
 ****
      8 0
 S   3 1.00       0.000000000000
      0.1873113696D+02  0.3349460434D-01
      0.2825394365D+01  0.2347269535D+00
      0.6401216923D+00  0.8137573261D+00
 S   1 1.00       0.000000000000
      0.1612777588D+00  0.1000000000D+01
 ****

 There are    15 symmetry adapted cartesian basis functions of AG  symmetry.
 There are     6 symmetry adapted cartesian basis functions of BG  symmetry.
 There are     6 symmetry adapted cartesian basis functions of AU  symmetry.
 There are    15 symmetry adapted cartesian basis functions of BU  symmetry.
 There are    15 symmetry adapted basis functions of AG  symmetry.
 There are     6 symmetry adapted basis functions of BG  symmetry.
 There are     6 symmetry adapted basis functions of AU  symmetry.
 There are    15 symmetry adapted basis functions of BU  symmetry.
    42 basis functions,    80 primitive gaussians,    42 cartesian basis functions
     9 alpha electrons        9 beta electrons
       nuclear repulsion energy        42.6703221225 Hartrees.
 IExCor=  402 DFT=T Ex+Corr=B3LYP ExCW=0 ScaHFX=  0.200000
 ScaDFX=  0.800000  0.720000  1.000000  0.810000 ScalE2=  1.000000  1.000000
 IRadAn=      0 IRanWt=     -1 IRanGd=            0 ICorTp=0 IEmpDi=  4
 NAtoms=    8 NActive=    8 NUniq=    2 SFac= 4.00D+00 NAtFMM=   60 NAOKFM=F Big=F
 Integral buffers will be    131072 words long.
 Raffenetti 2 integral format.
 Two-electron integral symmetry is turned on.
 Leave Link  301 at Wed Nov 30 16:29:06 2016, MaxMem=    33554432 cpu:         0.2
 (Enter /home/gaussian/g09/l302.exe)
 NPDir=0 NMtPBC=     1 NCelOv=     1 NCel=       1 NClECP=     1 NCelD=      1
         NCelK=      1 NCelE2=     1 NClLst=     1 CellRange=     0.0.
 One-electron integrals computed using PRISM.
 One-electron integral symmetry used in STVInt
 NBasis=    42 RedAO= T EigKep=  7.73D-03  NBF=    15     6     6    15
 NBsUse=    42 1.00D-06 EigRej= -1.00D+00 NBFU=    15     6     6    15
 Precomputing XC quadrature grid using
 IXCGrd= 4 IRadAn=           0 IRanWt=          -1 IRanGd=           0 AccXCQ= 0.00D+00.
 Generated NRdTot=       0 NPtTot=           0 NUsed=           0 NTot=          32
 NSgBfM=    42    42    42    42    42 MxSgAt=     8 MxSgA2=     8.
 Leave Link  302 at Wed Nov 30 16:29:07 2016, MaxMem=    33554432 cpu:         0.8
 (Enter /home/gaussian/g09/l303.exe)
 DipDrv:  MaxL=1.
 Leave Link  303 at Wed Nov 30 16:29:07 2016, MaxMem=    33554432 cpu:         0.1
 (Enter /home/gaussian/g09/l401.exe)
 ExpMin= 1.61D-01 ExpMax= 3.05D+03 ExpMxC= 4.57D+02 IAcc=1 IRadAn=         1 AccDes= 0.00D+00
 Harris functional with IExCor=  402 and IRadAn=       1 diagonalized for initial guess.
 HarFok:  IExCor=  402 AccDes= 0.00D+00 IRadAn=         1 IDoV= 1 UseB2=F ITyADJ=14
 ICtDFT=  3500011 ScaDFX=  1.000000  1.000000  1.000000  1.000000
 FoFCou: FMM=F IPFlag=           0 FMFlag=      100000 FMFlg1=           0
         NFxFlg=           0 DoJE=T BraDBF=F KetDBF=T FulRan=T
         wScrn=  0.000000 ICntrl=     500 IOpCl=  0 I1Cent=   200000004 NGrid=           0
         NMat0=    1 NMatS0=      1 NMatT0=    0 NMatD0=    1 NMtDS0=    0 NMtDT0=    0
 Petite list used in FoFCou.
 Harris En= -79.8907225151285    
 JPrj=0 DoOrth=F DoCkMO=F.
 Initial guess orbital symmetries:
       Occupied  (A1G) (A2U) (A1G) (A2U) (EU) (EU) (A1G) (EG) (EG)
       Virtual   (A1G) (A2U) (EU) (EU) (EG) (EG) (A2U) (A1G) (EU)
                 (EU) (EG) (EG) (A2U) (EU) (EU) (A1G) (EG) (EG)
                 (A2U) (A1G) (EU) (EU) (A2U) (A1G) (EG) (EG) (EU)
                 (EU) (EG) (EG) (A2U) (A1G) (A2U)
 The electronic state of the initial guess is 1-A1G.
 Leave Link  401 at Wed Nov 30 16:29:07 2016, MaxMem=    33554432 cpu:         0.7
 (Enter /home/gaussian/g09/l502.exe)
 Closed shell SCF:
 Using DIIS extrapolation, IDIIS=  1040.
 Integral symmetry usage will be decided dynamically.
 Keep R1 ints in memory in symmetry-blocked form, NReq=1296348.
 IVT=       24782 IEndB=       24782 NGot=    33554432 MDV=    33420437
 LenX=    33420437 LenY=    33418232
 Requested convergence on RMS density matrix=1.00D-08 within 128 cycles.
 Requested convergence on MAX density matrix=1.00D-06.
 Requested convergence on             energy=1.00D-06.
 No special actions if energy rises.
 FoFCou: FMM=F IPFlag=           0 FMFlag=           0 FMFlg1=           0
         NFxFlg=           0 DoJE=F BraDBF=F KetDBF=F FulRan=T
         wScrn=  0.000000 ICntrl=     600 IOpCl=  0 I1Cent=           0 NGrid=           0
         NMat0=    1 NMatS0=    903 NMatT0=    0 NMatD0=    1 NMtDS0=    0 NMtDT0=    0
 Petite list used in FoFCou.
 Integral accuracy reduced to 1.0D-05 until final iterations.

 Cycle   1  Pass 0  IDiag  1:
 E= -79.6937206285652    
 DIIS: error= 6.48D-02 at cycle   1 NSaved=   1.
 NSaved= 1 IEnMin= 1 EnMin= -79.6937206285652     IErMin= 1 ErrMin= 6.48D-02
 ErrMax= 6.48D-02  0.00D+00 EMaxC= 1.00D-01 BMatC= 1.20D-01 BMatP= 1.20D-01
 IDIUse=3 WtCom= 3.52D-01 WtEn= 6.48D-01
 Coeff-Com:  0.100D+01
 Coeff-En:   0.100D+01
 Coeff:      0.100D+01
 Gap=     0.385 Goal=   None    Shift=    0.000
 GapD=    0.385 DampG=1.000 DampE=0.500 DampFc=0.5000 IDamp=-1.
 Damping current iteration by 5.00D-01
 RMSDP=1.66D-02 MaxDP=1.45D-01              OVMax= 1.86D-01

 Cycle   2  Pass 0  IDiag  1:
 E= -79.7549689452624     Delta-E=       -0.061248316697 Rises=F Damp=T
 DIIS: error= 1.09D-02 at cycle   2 NSaved=   2.
 NSaved= 2 IEnMin= 2 EnMin= -79.7549689452624     IErMin= 2 ErrMin= 1.09D-02
 ErrMax= 1.09D-02  0.00D+00 EMaxC= 1.00D-01 BMatC= 3.47D-03 BMatP= 1.20D-01
 IDIUse=3 WtCom= 8.91D-01 WtEn= 1.09D-01
 Coeff-Com:  0.678D-01 0.932D+00
 Coeff-En:   0.990D-01 0.901D+00
 Coeff:      0.711D-01 0.929D+00
 Gap=     0.446 Goal=   None    Shift=    0.000
 RMSDP=1.78D-03 MaxDP=1.29D-02 DE=-6.12D-02 OVMax= 9.49D-02

 Cycle   3  Pass 0  IDiag  1:
 E= -79.8269346806899     Delta-E=       -0.071965735428 Rises=F Damp=F
 DIIS: error= 2.23D-03 at cycle   3 NSaved=   3.
 NSaved= 3 IEnMin= 3 EnMin= -79.8269346806899     IErMin= 3 ErrMin= 2.23D-03
 ErrMax= 2.23D-03  0.00D+00 EMaxC= 1.00D-01 BMatC= 1.22D-04 BMatP= 3.47D-03
 IDIUse=3 WtCom= 9.78D-01 WtEn= 2.23D-02
 Coeff-Com:  0.570D-02 0.101D+00 0.893D+00
 Coeff-En:   0.000D+00 0.000D+00 0.100D+01
 Coeff:      0.557D-02 0.991D-01 0.895D+00
 Gap=     0.453 Goal=   None    Shift=    0.000
 RMSDP=2.88D-04 MaxDP=1.78D-03 DE=-7.20D-02 OVMax= 3.87D-03

 Cycle   4  Pass 0  IDiag  1:
 E= -79.8270364303081     Delta-E=       -0.000101749618 Rises=F Damp=F
 DIIS: error= 5.85D-04 at cycle   4 NSaved=   4.
 NSaved= 4 IEnMin= 4 EnMin= -79.8270364303081     IErMin= 4 ErrMin= 5.85D-04
 ErrMax= 5.85D-04  0.00D+00 EMaxC= 1.00D-01 BMatC= 8.36D-06 BMatP= 1.22D-04
 IDIUse=3 WtCom= 9.94D-01 WtEn= 5.85D-03
 Coeff-Com:  0.115D-02-0.440D-02 0.195D+00 0.808D+00
 Coeff-En:   0.000D+00 0.000D+00 0.000D+00 0.100D+01
 Coeff:      0.114D-02-0.437D-02 0.194D+00 0.809D+00
 Gap=     0.453 Goal=   None    Shift=    0.000
 RMSDP=6.22D-05 MaxDP=3.46D-04 DE=-1.02D-04 OVMax= 9.34D-04

 Cycle   5  Pass 0  IDiag  1:
 E= -79.8270440904069     Delta-E=       -0.000007660099 Rises=F Damp=F
 DIIS: error= 1.01D-05 at cycle   5 NSaved=   5.
 NSaved= 5 IEnMin= 5 EnMin= -79.8270440904069     IErMin= 5 ErrMin= 1.01D-05
 ErrMax= 1.01D-05  0.00D+00 EMaxC= 1.00D-01 BMatC= 3.89D-09 BMatP= 8.36D-06
 IDIUse=1 WtCom= 1.00D+00 WtEn= 0.00D+00
 Coeff-Com:  0.909D-04-0.238D-03-0.913D-02-0.244D-01 0.103D+01
 Coeff:      0.909D-04-0.238D-03-0.913D-02-0.244D-01 0.103D+01
 Gap=     0.453 Goal=   None    Shift=    0.000
 RMSDP=1.50D-06 MaxDP=1.54D-05 DE=-7.66D-06 OVMax= 2.33D-05

 Initial convergence to 1.0D-05 achieved.  Increase integral accuracy.
 Cycle   6  Pass 1  IDiag  1:
 E= -79.8270641932539     Delta-E=       -0.000020102847 Rises=F Damp=F
 DIIS: error= 3.00D-06 at cycle   1 NSaved=   1.
 NSaved= 1 IEnMin= 1 EnMin= -79.8270641932539     IErMin= 1 ErrMin= 3.00D-06
 ErrMax= 3.00D-06  0.00D+00 EMaxC= 1.00D-01 BMatC= 3.43D-10 BMatP= 3.43D-10
 IDIUse=1 WtCom= 1.00D+00 WtEn= 0.00D+00
 Coeff-Com:  0.100D+01
 Coeff:      0.100D+01
 Gap=     0.453 Goal=   None    Shift=    0.000
 RMSDP=1.50D-06 MaxDP=1.54D-05 DE=-2.01D-05 OVMax= 7.93D-06

 Cycle   7  Pass 1  IDiag  1:
 E= -79.8270641936487     Delta-E=       -0.000000000395 Rises=F Damp=F
 DIIS: error= 8.03D-07 at cycle   2 NSaved=   2.
 NSaved= 2 IEnMin= 2 EnMin= -79.8270641936487     IErMin= 2 ErrMin= 8.03D-07
 ErrMax= 8.03D-07  0.00D+00 EMaxC= 1.00D-01 BMatC= 1.85D-11 BMatP= 3.43D-10
 IDIUse=1 WtCom= 1.00D+00 WtEn= 0.00D+00
 Coeff-Com:  0.672D-01 0.933D+00
 Coeff:      0.672D-01 0.933D+00
 Gap=     0.453 Goal=   None    Shift=    0.000
 RMSDP=1.44D-07 MaxDP=1.65D-06 DE=-3.95D-10 OVMax= 1.83D-06

 Cycle   8  Pass 1  IDiag  1:
 E= -79.8270641936506     Delta-E=       -0.000000000002 Rises=F Damp=F
 DIIS: error= 7.06D-07 at cycle   3 NSaved=   3.
 NSaved= 3 IEnMin= 3 EnMin= -79.8270641936506     IErMin= 3 ErrMin= 7.06D-07
 ErrMax= 7.06D-07  0.00D+00 EMaxC= 1.00D-01 BMatC= 1.55D-11 BMatP= 1.85D-11
 IDIUse=1 WtCom= 1.00D+00 WtEn= 0.00D+00
 Coeff-Com: -0.127D-01 0.479D+00 0.534D+00
 Coeff:     -0.127D-01 0.479D+00 0.534D+00
 Gap=     0.453 Goal=   None    Shift=    0.000
 RMSDP=8.80D-08 MaxDP=7.98D-07 DE=-1.90D-12 OVMax= 1.01D-06

 Cycle   9  Pass 1  IDiag  1:
 E= -79.8270641936667     Delta-E=       -0.000000000016 Rises=F Damp=F
 DIIS: error= 4.69D-08 at cycle   4 NSaved=   4.
 NSaved= 4 IEnMin= 4 EnMin= -79.8270641936667     IErMin= 4 ErrMin= 4.69D-08
 ErrMax= 4.69D-08  0.00D+00 EMaxC= 1.00D-01 BMatC= 8.28D-14 BMatP= 1.55D-11
 IDIUse=1 WtCom= 1.00D+00 WtEn= 0.00D+00
 Coeff-Com: -0.442D-02 0.929D-01 0.142D+00 0.770D+00
 Coeff:     -0.442D-02 0.929D-01 0.142D+00 0.770D+00
 Gap=     0.453 Goal=   None    Shift=    0.000
 RMSDP=6.56D-09 MaxDP=3.69D-08 DE=-1.61D-11 OVMax= 8.68D-08

 SCF Done:  E(RB3LYP) =  -79.8270641937     A.U. after    9 cycles
            NFock=  9  Conv=0.66D-08     -V/T= 2.0082
 KE= 7.917888825081D+01 PE=-2.693008009555D+02 EE= 6.762452638861D+01
 Leave Link  502 at Wed Nov 30 16:29:07 2016, MaxMem=    33554432 cpu:         1.2
 (Enter /home/gaussian/g09/l601.exe)
 Copying SCF densities to generalized density rwf, IOpCl= 0 IROHF=0.

 **********************************************************************

            Population analysis using the SCF density.

 **********************************************************************

 Orbital symmetries:
       Occupied  (A1G) (A2U) (A1G) (A2U) (EU) (EU) (A1G) (EG) (EG)
       Virtual   (A1G) (A2U) (EU) (EU) (EG) (EG) (A2U) (A1G) (EU)
                 (EU) (EG) (EG) (A2U) (EU) (EU) (A1G) (EG) (EG)
                 (A2U) (A1G) (A2U) (EU) (EU) (A1G) (EG) (EG) (EU)
                 (EU) (EG) (EG) (A2U) (A1G) (A2U)
 The electronic state is 1-A1G.
 Alpha  occ. eigenvalues --  -10.16282 -10.16262  -0.75194  -0.61559  -0.43766
 Alpha  occ. eigenvalues --   -0.43766  -0.35191  -0.34644  -0.34644
 Alpha virt. eigenvalues --    0.10698   0.16637   0.17652   0.17652   0.19262
 Alpha virt. eigenvalues --    0.19262   0.23680   0.51133   0.54381   0.54381
 Alpha virt. eigenvalues --    0.62002   0.62002   0.66777   0.90393   0.90393
 Alpha virt. eigenvalues --    0.92618   0.94445   0.94445   1.01225   1.07871
 Alpha virt. eigenvalues --    1.44682   1.51648   1.51648   1.94397   2.01418
 Alpha virt. eigenvalues --    2.01418   2.31495   2.31495   2.32823   2.32823
 Alpha virt. eigenvalues --    2.59401   4.16208   4.37737
     Molecular Orbital Coefficients:
                           1         2         3         4         5
                       (A1G)--O  (A2U)--O  (A1G)--O  (A2U)--O   (EU)--O
     Eigenvalues --   -10.16282 -10.16262  -0.75194  -0.61559  -0.43766
   1 1   C  1S          0.70199   0.70215  -0.14831  -0.13116   0.00000
   2        2S          0.03533   0.03568   0.28079   0.26021   0.00000
   3        2PX         0.00000   0.00000   0.00000   0.00000   0.00000
   4        2PY         0.00000   0.00000   0.00000   0.00000   0.32014
   5        2PZ         0.00009  -0.00009  -0.05241   0.12786   0.00000
   6        3S         -0.00909  -0.01534   0.23525   0.25110   0.00000
   7        3PX         0.00000   0.00000   0.00000   0.00000   0.00000
   8        3PY         0.00000   0.00000   0.00000   0.00000   0.14153
   9        3PZ        -0.00081   0.00221  -0.00913   0.04568   0.00000
  10        4XX        -0.00654  -0.00639  -0.00072   0.00637  -0.01138
  11        4YY        -0.00654  -0.00639  -0.00072   0.00637   0.01138
  12        4ZZ        -0.00690  -0.00632   0.00382  -0.01660   0.00000
  13        4XY         0.00000   0.00000   0.00000   0.00000   0.00000
  14        4XZ         0.00000   0.00000   0.00000   0.00000   0.00000
  15        4YZ         0.00000   0.00000   0.00000   0.00000   0.00256
  16 2   H  1S         -0.00017   0.00006   0.08831   0.11945   0.17941
  17        2S          0.00203   0.00200   0.01895   0.04425   0.13214
  18 3   H  1S         -0.00017   0.00006   0.08831   0.11945  -0.08970
  19        2S          0.00203   0.00200   0.01895   0.04425  -0.06607
  20 4   H  1S         -0.00017   0.00006   0.08831   0.11945  -0.08970
  21        2S          0.00203   0.00200   0.01895   0.04425  -0.06607
  22 5   C  1S          0.70199  -0.70215  -0.14831   0.13116   0.00000
  23        2S          0.03533  -0.03568   0.28079  -0.26021   0.00000
  24        2PX         0.00000   0.00000   0.00000   0.00000   0.00000
  25        2PY         0.00000   0.00000   0.00000   0.00000   0.32014
  26        2PZ        -0.00009  -0.00009   0.05241   0.12786   0.00000
  27        3S         -0.00909   0.01534   0.23525  -0.25110   0.00000
  28        3PX         0.00000   0.00000   0.00000   0.00000   0.00000
  29        3PY         0.00000   0.00000   0.00000   0.00000   0.14153
  30        3PZ         0.00081   0.00221   0.00913   0.04568   0.00000
  31        4XX        -0.00654   0.00639  -0.00072  -0.00637   0.01138
  32        4YY        -0.00654   0.00639  -0.00072  -0.00637  -0.01138
  33        4ZZ        -0.00690   0.00632   0.00382   0.01660   0.00000
  34        4XY         0.00000   0.00000   0.00000   0.00000   0.00000
  35        4XZ         0.00000   0.00000   0.00000   0.00000   0.00000
  36        4YZ         0.00000   0.00000   0.00000   0.00000  -0.00256
  37 6   H  1S         -0.00017  -0.00006   0.08831  -0.11945  -0.17941
  38        2S          0.00203  -0.00200   0.01895  -0.04425  -0.13214
  39 7   H  1S         -0.00017  -0.00006   0.08831  -0.11945   0.08970
  40        2S          0.00203  -0.00200   0.01895  -0.04425   0.06607
  41 8   H  1S         -0.00017  -0.00006   0.08831  -0.11945   0.08970
  42        2S          0.00203  -0.00200   0.01895  -0.04425   0.06607
                           6         7         8         9        10
                        (EU)--O  (A1G)--O   (EG)--O   (EG)--O  (A1G)--V
     Eigenvalues --    -0.43766  -0.35191  -0.34644  -0.34644   0.10698
   1 1   C  1S          0.00000   0.01680   0.00000   0.00000  -0.09925
   2        2S          0.00000  -0.03891   0.00000   0.00000   0.12276
   3        2PX         0.32014   0.00000   0.00000   0.31960   0.00000
   4        2PY         0.00000   0.00000   0.31960   0.00000   0.00000
   5        2PZ         0.00000   0.41451   0.00000   0.00000   0.11630
   6        3S          0.00000  -0.05300   0.00000   0.00000   1.64462
   7        3PX         0.14153   0.00000   0.00000   0.14839   0.00000
   8        3PY         0.00000   0.00000   0.14839   0.00000   0.00000
   9        3PZ         0.00000   0.20092   0.00000   0.00000   0.46459
  10        4XX         0.00000   0.01040  -0.01502   0.00000  -0.01238
  11        4YY         0.00000   0.01040   0.01502   0.00000  -0.01238
  12        4ZZ         0.00000  -0.01211   0.00000   0.00000   0.00115
  13        4XY        -0.01314   0.00000   0.00000  -0.01735   0.00000
  14        4XZ         0.00256   0.00000   0.00000   0.02091   0.00000
  15        4YZ         0.00000   0.00000   0.02091   0.00000   0.00000
  16 2   H  1S          0.00000   0.07881   0.21662   0.00000  -0.01160
  17        2S          0.00000   0.07927   0.20654   0.00000  -0.79727
  18 3   H  1S         -0.15537   0.07881  -0.10831  -0.18760  -0.01160
  19        2S         -0.11444   0.07927  -0.10327  -0.17887  -0.79727
  20 4   H  1S          0.15537   0.07881  -0.10831   0.18760  -0.01160
  21        2S          0.11444   0.07927  -0.10327   0.17887  -0.79727
  22 5   C  1S          0.00000   0.01680   0.00000   0.00000  -0.09925
  23        2S          0.00000  -0.03891   0.00000   0.00000   0.12276
  24        2PX         0.32014   0.00000   0.00000  -0.31960   0.00000
  25        2PY         0.00000   0.00000  -0.31960   0.00000   0.00000
  26        2PZ         0.00000  -0.41451   0.00000   0.00000  -0.11630
  27        3S          0.00000  -0.05300   0.00000   0.00000   1.64462
  28        3PX         0.14153   0.00000   0.00000  -0.14839   0.00000
  29        3PY         0.00000   0.00000  -0.14839   0.00000   0.00000
  30        3PZ         0.00000  -0.20092   0.00000   0.00000  -0.46459
  31        4XX         0.00000   0.01040  -0.01502   0.00000  -0.01238
  32        4YY         0.00000   0.01040   0.01502   0.00000  -0.01238
  33        4ZZ         0.00000  -0.01211   0.00000   0.00000   0.00115
  34        4XY         0.01314   0.00000   0.00000  -0.01735   0.00000
  35        4XZ        -0.00256   0.00000   0.00000   0.02091   0.00000
  36        4YZ         0.00000   0.00000   0.02091   0.00000   0.00000
  37 6   H  1S          0.00000   0.07881   0.21662   0.00000  -0.01160
  38        2S          0.00000   0.07927   0.20654   0.00000  -0.79727
  39 7   H  1S         -0.15537   0.07881  -0.10831   0.18760  -0.01160
  40        2S         -0.11444   0.07927  -0.10327   0.17887  -0.79727
  41 8   H  1S          0.15537   0.07881  -0.10831  -0.18760  -0.01160
  42        2S          0.11444   0.07927  -0.10327  -0.17887  -0.79727
                          11        12        13        14        15
                       (A2U)--V   (EU)--V   (EU)--V   (EG)--V   (EG)--V
     Eigenvalues --     0.16637   0.17652   0.17652   0.19262   0.19262
   1 1   C  1S         -0.13229   0.00000   0.00000   0.00000   0.00000
   2        2S          0.11644   0.00000   0.00000   0.00000   0.00000
   3        2PX         0.00000   0.00000   0.29329   0.00000   0.26155
   4        2PY         0.00000  -0.29329   0.00000  -0.26155   0.00000
   5        2PZ         0.01391   0.00000   0.00000   0.00000   0.00000
   6        3S          2.45783   0.00000   0.00000   0.00000   0.00000
   7        3PX         0.00000   0.00000   0.82051   0.00000   1.30458
   8        3PY         0.00000  -0.82051   0.00000  -1.30458   0.00000
   9        3PZ        -0.36580   0.00000   0.00000   0.00000   0.00000
  10        4XX        -0.00611  -0.00456   0.00000  -0.01411   0.00000
  11        4YY        -0.00611   0.00456   0.00000   0.01411   0.00000
  12        4ZZ        -0.01848   0.00000   0.00000   0.00000   0.00000
  13        4XY         0.00000   0.00000   0.00527   0.00000   0.01630
  14        4XZ         0.00000   0.00000  -0.01813   0.00000   0.01106
  15        4YZ         0.00000   0.01813   0.00000  -0.01106   0.00000
  16 2   H  1S         -0.00921   0.08055   0.00000   0.05396   0.00000
  17        2S         -0.80969   1.27455   0.00000   1.39676   0.00000
  18 3   H  1S         -0.00921  -0.04027   0.06976  -0.02698   0.04673
  19        2S         -0.80969  -0.63728   1.10380  -0.69838   1.20963
  20 4   H  1S         -0.00921  -0.04027  -0.06976  -0.02698  -0.04673
  21        2S         -0.80969  -0.63728  -1.10380  -0.69838  -1.20963
  22 5   C  1S          0.13229   0.00000   0.00000   0.00000   0.00000
  23        2S         -0.11644   0.00000   0.00000   0.00000   0.00000
  24        2PX         0.00000   0.00000   0.29329   0.00000  -0.26155
  25        2PY         0.00000  -0.29329   0.00000   0.26155   0.00000
  26        2PZ         0.01391   0.00000   0.00000   0.00000   0.00000
  27        3S         -2.45783   0.00000   0.00000   0.00000   0.00000
  28        3PX         0.00000   0.00000   0.82051   0.00000  -1.30458
  29        3PY         0.00000  -0.82051   0.00000   1.30458   0.00000
  30        3PZ        -0.36580   0.00000   0.00000   0.00000   0.00000
  31        4XX         0.00611   0.00456   0.00000  -0.01411   0.00000
  32        4YY         0.00611  -0.00456   0.00000   0.01411   0.00000
  33        4ZZ         0.01848   0.00000   0.00000   0.00000   0.00000
  34        4XY         0.00000   0.00000  -0.00527   0.00000   0.01630
  35        4XZ         0.00000   0.00000   0.01813   0.00000   0.01106
  36        4YZ         0.00000  -0.01813   0.00000  -0.01106   0.00000
  37 6   H  1S          0.00921  -0.08055   0.00000   0.05396   0.00000
  38        2S          0.80969  -1.27455   0.00000   1.39676   0.00000
  39 7   H  1S          0.00921   0.04027   0.06976  -0.02698  -0.04673
  40        2S          0.80969   0.63728   1.10380  -0.69838  -1.20963
  41 8   H  1S          0.00921   0.04027  -0.06976  -0.02698   0.04673
  42        2S          0.80969   0.63728  -1.10380  -0.69838   1.20963
                          16        17        18        19        20
                       (A2U)--V  (A1G)--V   (EU)--V   (EU)--V   (EG)--V
     Eigenvalues --     0.23680   0.51133   0.54381   0.54381   0.62002
   1 1   C  1S          0.03759   0.00858   0.00000   0.00000   0.00000
   2        2S         -0.03160   0.02038   0.00000   0.00000   0.00000
   3        2PX         0.00000   0.00000   0.00000  -0.42930   0.00000
   4        2PY         0.00000   0.00000  -0.42930   0.00000  -0.65398
   5        2PZ         0.36278  -0.59932   0.00000   0.00000   0.00000
   6        3S         -0.66821   0.38316   0.00000   0.00000   0.00000
   7        3PX         0.00000   0.00000   0.00000   0.81357   0.00000
   8        3PY         0.00000   0.00000   0.81357   0.00000   1.74304
   9        3PZ         1.62621   0.90994   0.00000   0.00000   0.00000
  10        4XX        -0.01269  -0.03483   0.05794   0.00000   0.06734
  11        4YY        -0.01269  -0.03483  -0.05794   0.00000  -0.06734
  12        4ZZ         0.02906   0.10618   0.00000   0.00000   0.00000
  13        4XY         0.00000   0.00000   0.00000   0.06691   0.00000
  14        4XZ         0.00000   0.00000   0.00000  -0.05900   0.00000
  15        4YZ         0.00000   0.00000  -0.05900   0.00000   0.00139
  16 2   H  1S         -0.05942  -0.13414  -0.41786   0.00000  -0.23735
  17        2S         -0.45862  -0.01680  -0.11387   0.00000  -0.47930
  18 3   H  1S         -0.05942  -0.13414   0.20893   0.36188   0.11868
  19        2S         -0.45862  -0.01680   0.05694   0.09862   0.23965
  20 4   H  1S         -0.05942  -0.13414   0.20893  -0.36188   0.11868
  21        2S         -0.45862  -0.01680   0.05694  -0.09862   0.23965
  22 5   C  1S         -0.03759   0.00858   0.00000   0.00000   0.00000
  23        2S          0.03160   0.02038   0.00000   0.00000   0.00000
  24        2PX         0.00000   0.00000   0.00000  -0.42930   0.00000
  25        2PY         0.00000   0.00000  -0.42930   0.00000   0.65398
  26        2PZ         0.36278   0.59932   0.00000   0.00000   0.00000
  27        3S          0.66821   0.38316   0.00000   0.00000   0.00000
  28        3PX         0.00000   0.00000   0.00000   0.81357   0.00000
  29        3PY         0.00000   0.00000   0.81357   0.00000  -1.74304
  30        3PZ         1.62621  -0.90994   0.00000   0.00000   0.00000
  31        4XX         0.01269  -0.03483  -0.05794   0.00000   0.06734
  32        4YY         0.01269  -0.03483   0.05794   0.00000  -0.06734
  33        4ZZ        -0.02906   0.10618   0.00000   0.00000   0.00000
  34        4XY         0.00000   0.00000   0.00000  -0.06691   0.00000
  35        4XZ         0.00000   0.00000   0.00000   0.05900   0.00000
  36        4YZ         0.00000   0.00000   0.05900   0.00000   0.00139
  37 6   H  1S          0.05942  -0.13414   0.41786   0.00000  -0.23735
  38        2S          0.45862  -0.01680   0.11387   0.00000  -0.47930
  39 7   H  1S          0.05942  -0.13414  -0.20893   0.36188   0.11868
  40        2S          0.45862  -0.01680  -0.05694   0.09862   0.23965
  41 8   H  1S          0.05942  -0.13414  -0.20893  -0.36188   0.11868
  42        2S          0.45862  -0.01680  -0.05694  -0.09862   0.23965
                          21        22        23        24        25
                        (EG)--V  (A2U)--V   (EU)--V   (EU)--V  (A1G)--V
     Eigenvalues --     0.62002   0.66777   0.90393   0.90393   0.92618
   1 1   C  1S          0.00000  -0.04715   0.00000   0.00000   0.05438
   2        2S          0.00000   0.29450   0.00000   0.00000  -0.35575
   3        2PX        -0.65398   0.00000   0.00000  -0.69227   0.00000
   4        2PY         0.00000   0.00000   0.69227   0.00000   0.00000
   5        2PZ         0.00000  -0.78730   0.00000   0.00000  -0.39673
   6        3S          0.00000  -0.75072   0.00000   0.00000   0.54850
   7        3PX         1.74304   0.00000   0.00000   1.11077   0.00000
   8        3PY         0.00000   0.00000  -1.11077   0.00000   0.00000
   9        3PZ         0.00000   1.69740   0.00000   0.00000   0.25200
  10        4XX         0.00000   0.03211   0.07926   0.00000   0.03234
  11        4YY         0.00000   0.03211  -0.07926   0.00000   0.03234
  12        4ZZ         0.00000  -0.07885   0.00000   0.00000  -0.09844
  13        4XY         0.07776   0.00000   0.00000  -0.09152   0.00000
  14        4XZ         0.00139   0.00000   0.00000   0.12208   0.00000
  15        4YZ         0.00000   0.00000  -0.12208   0.00000   0.00000
  16 2   H  1S          0.00000  -0.11965  -0.50659   0.00000   0.50262
  17        2S          0.00000  -0.28965   1.31879   0.00000  -0.38850
  18 3   H  1S          0.20555  -0.11965   0.25330  -0.43872   0.50262
  19        2S          0.41509  -0.28965  -0.65939   1.14210  -0.38850
  20 4   H  1S         -0.20555  -0.11965   0.25330   0.43872   0.50262
  21        2S         -0.41509  -0.28965  -0.65939  -1.14210  -0.38850
  22 5   C  1S          0.00000   0.04715   0.00000   0.00000   0.05438
  23        2S          0.00000  -0.29450   0.00000   0.00000  -0.35575
  24        2PX         0.65398   0.00000   0.00000  -0.69227   0.00000
  25        2PY         0.00000   0.00000   0.69227   0.00000   0.00000
  26        2PZ         0.00000  -0.78730   0.00000   0.00000   0.39673
  27        3S          0.00000   0.75072   0.00000   0.00000   0.54850
  28        3PX        -1.74304   0.00000   0.00000   1.11077   0.00000
  29        3PY         0.00000   0.00000  -1.11077   0.00000   0.00000
  30        3PZ         0.00000   1.69740   0.00000   0.00000  -0.25200
  31        4XX         0.00000  -0.03211  -0.07926   0.00000   0.03234
  32        4YY         0.00000  -0.03211   0.07926   0.00000   0.03234
  33        4ZZ         0.00000   0.07885   0.00000   0.00000  -0.09844
  34        4XY         0.07776   0.00000   0.00000   0.09152   0.00000
  35        4XZ         0.00139   0.00000   0.00000  -0.12208   0.00000
  36        4YZ         0.00000   0.00000   0.12208   0.00000   0.00000
  37 6   H  1S          0.00000   0.11965   0.50659   0.00000   0.50262
  38        2S          0.00000   0.28965  -1.31879   0.00000  -0.38850
  39 7   H  1S         -0.20555   0.11965  -0.25330  -0.43872   0.50262
  40        2S         -0.41509   0.28965   0.65939   1.14210  -0.38850
  41 8   H  1S          0.20555   0.11965  -0.25330   0.43872   0.50262
  42        2S          0.41509   0.28965   0.65939  -1.14210  -0.38850
                          26        27        28        29        30
                        (EG)--V   (EG)--V  (A2U)--V  (A1G)--V  (A2U)--V
     Eigenvalues --     0.94445   0.94445   1.01225   1.07871   1.44682
   1 1   C  1S          0.00000   0.00000   0.03744  -0.06155  -0.13916
   2        2S          0.00000   0.00000  -1.01681  -1.47514  -1.53059
   3        2PX         0.00000  -0.51573   0.00000   0.00000   0.00000
   4        2PY         0.51573   0.00000   0.00000   0.00000   0.00000
   5        2PZ         0.00000   0.00000  -0.30739   0.05406   0.02620
   6        3S          0.00000   0.00000   2.25919   3.28413   5.89730
   7        3PX         0.00000   0.55874   0.00000   0.00000   0.00000
   8        3PY        -0.55874   0.00000   0.00000   0.00000   0.00000
   9        3PZ         0.00000   0.00000   0.49254   0.44200  -1.57363
  10        4XX         0.14651   0.00000  -0.02131  -0.04820  -0.08219
  11        4YY        -0.14651   0.00000  -0.02131  -0.04820  -0.08219
  12        4ZZ         0.00000   0.00000  -0.06837  -0.15933   0.00484
  13        4XY         0.00000  -0.16918   0.00000   0.00000   0.00000
  14        4XZ         0.00000   0.03706   0.00000   0.00000   0.00000
  15        4YZ        -0.03706   0.00000   0.00000   0.00000   0.00000
  16 2   H  1S         -0.65117   0.00000   0.40166  -0.15489  -0.48215
  17        2S          0.98871   0.00000  -0.86130  -0.82369  -0.46844
  18 3   H  1S          0.32559  -0.56393   0.40166  -0.15489  -0.48215
  19        2S         -0.49436   0.85625  -0.86130  -0.82369  -0.46844
  20 4   H  1S          0.32559   0.56393   0.40166  -0.15489  -0.48215
  21        2S         -0.49436  -0.85625  -0.86130  -0.82369  -0.46844
  22 5   C  1S          0.00000   0.00000  -0.03744  -0.06155   0.13916
  23        2S          0.00000   0.00000   1.01681  -1.47514   1.53059
  24        2PX         0.00000   0.51573   0.00000   0.00000   0.00000
  25        2PY        -0.51573   0.00000   0.00000   0.00000   0.00000
  26        2PZ         0.00000   0.00000  -0.30739  -0.05406   0.02620
  27        3S          0.00000   0.00000  -2.25919   3.28413  -5.89730
  28        3PX         0.00000  -0.55874   0.00000   0.00000   0.00000
  29        3PY         0.55874   0.00000   0.00000   0.00000   0.00000
  30        3PZ         0.00000   0.00000   0.49254  -0.44200  -1.57363
  31        4XX         0.14651   0.00000   0.02131  -0.04820   0.08219
  32        4YY        -0.14651   0.00000   0.02131  -0.04820   0.08219
  33        4ZZ         0.00000   0.00000   0.06837  -0.15933  -0.00484
  34        4XY         0.00000  -0.16918   0.00000   0.00000   0.00000
  35        4XZ         0.00000   0.03706   0.00000   0.00000   0.00000
  36        4YZ        -0.03706   0.00000   0.00000   0.00000   0.00000
  37 6   H  1S         -0.65117   0.00000  -0.40166  -0.15489   0.48215
  38        2S          0.98871   0.00000   0.86130  -0.82369   0.46844
  39 7   H  1S          0.32559   0.56393  -0.40166  -0.15489   0.48215
  40        2S         -0.49436  -0.85625   0.86130  -0.82369   0.46844
  41 8   H  1S          0.32559  -0.56393  -0.40166  -0.15489   0.48215
  42        2S         -0.49436   0.85625   0.86130  -0.82369   0.46844
                          31        32        33        34        35
                        (EU)--V   (EU)--V  (A1G)--V   (EG)--V   (EG)--V
     Eigenvalues --     1.51648   1.51648   1.94397   2.01418   2.01418
   1 1   C  1S          0.00000   0.00000   0.03096   0.00000   0.00000
   2        2S          0.00000   0.00000  -0.39623   0.00000   0.00000
   3        2PX         0.08313   0.00000   0.00000   0.00000   0.01204
   4        2PY         0.00000   0.08313   0.00000   0.01204   0.00000
   5        2PZ         0.00000   0.00000   0.24679   0.00000   0.00000
   6        3S          0.00000   0.00000   0.04892   0.00000   0.00000
   7        3PX         0.12287   0.00000   0.00000   0.00000   0.79172
   8        3PY         0.00000   0.12287   0.00000   0.79172   0.00000
   9        3PZ         0.00000   0.00000  -0.33906   0.00000   0.00000
  10        4XX         0.00000   0.27676  -0.33209  -0.52113   0.00000
  11        4YY         0.00000  -0.27676  -0.33209   0.52113   0.00000
  12        4ZZ         0.00000   0.00000   0.67600   0.00000   0.00000
  13        4XY         0.31957   0.00000   0.00000   0.00000  -0.60174
  14        4XZ         0.58588   0.00000   0.00000   0.00000  -0.46655
  15        4YZ         0.00000   0.58588   0.00000  -0.46655   0.00000
  16 2   H  1S          0.00000  -0.13878   0.22056  -0.33406   0.00000
  17        2S          0.00000  -0.03182  -0.05624  -0.22740   0.00000
  18 3   H  1S          0.12019   0.06939   0.22056   0.16703   0.28930
  19        2S          0.02755   0.01591  -0.05624   0.11370   0.19694
  20 4   H  1S         -0.12019   0.06939   0.22056   0.16703  -0.28930
  21        2S         -0.02755   0.01591  -0.05624   0.11370  -0.19694
  22 5   C  1S          0.00000   0.00000   0.03096   0.00000   0.00000
  23        2S          0.00000   0.00000  -0.39623   0.00000   0.00000
  24        2PX         0.08313   0.00000   0.00000   0.00000  -0.01204
  25        2PY         0.00000   0.08313   0.00000  -0.01204   0.00000
  26        2PZ         0.00000   0.00000  -0.24679   0.00000   0.00000
  27        3S          0.00000   0.00000   0.04892   0.00000   0.00000
  28        3PX         0.12287   0.00000   0.00000   0.00000  -0.79172
  29        3PY         0.00000   0.12287   0.00000  -0.79172   0.00000
  30        3PZ         0.00000   0.00000   0.33906   0.00000   0.00000
  31        4XX         0.00000  -0.27676  -0.33209  -0.52113   0.00000
  32        4YY         0.00000   0.27676  -0.33209   0.52113   0.00000
  33        4ZZ         0.00000   0.00000   0.67600   0.00000   0.00000
  34        4XY        -0.31957   0.00000   0.00000   0.00000  -0.60174
  35        4XZ        -0.58588   0.00000   0.00000   0.00000  -0.46655
  36        4YZ         0.00000  -0.58588   0.00000  -0.46655   0.00000
  37 6   H  1S          0.00000   0.13878   0.22056  -0.33406   0.00000
  38        2S          0.00000   0.03182  -0.05624  -0.22740   0.00000
  39 7   H  1S          0.12019  -0.06939   0.22056   0.16703  -0.28930
  40        2S          0.02755  -0.01591  -0.05624   0.11370  -0.19694
  41 8   H  1S         -0.12019  -0.06939   0.22056   0.16703   0.28930
  42        2S         -0.02755  -0.01591  -0.05624   0.11370   0.19694
                          36        37        38        39        40
                        (EU)--V   (EU)--V   (EG)--V   (EG)--V  (A2U)--V
     Eigenvalues --     2.31495   2.31495   2.32823   2.32823   2.59401
   1 1   C  1S          0.00000   0.00000   0.00000   0.00000  -0.07112
   2        2S          0.00000   0.00000   0.00000   0.00000   0.04173
   3        2PX        -0.14442   0.00000   0.00000   0.08203   0.00000
   4        2PY         0.00000  -0.14442   0.08203   0.00000   0.00000
   5        2PZ         0.00000   0.00000   0.00000   0.00000  -0.36807
   6        3S          0.00000   0.00000   0.00000   0.00000   1.37986
   7        3PX        -0.25371   0.00000   0.00000   0.26228   0.00000
   8        3PY         0.00000  -0.25371   0.26228   0.00000   0.00000
   9        3PZ         0.00000   0.00000   0.00000   0.00000  -0.89625
  10        4XX         0.00000   0.62887  -0.41532   0.00000  -0.55628
  11        4YY         0.00000  -0.62887   0.41532   0.00000  -0.55628
  12        4ZZ         0.00000   0.00000   0.00000   0.00000   0.92457
  13        4XY         0.72615   0.00000   0.00000  -0.47957   0.00000
  14        4XZ        -0.36452   0.00000   0.00000   0.68143   0.00000
  15        4YZ         0.00000  -0.36452   0.68143   0.00000   0.00000
  16 2   H  1S          0.00000   0.57500  -0.51499   0.00000   0.12226
  17        2S          0.00000  -0.07010   0.09853   0.00000  -0.03510
  18 3   H  1S         -0.49796  -0.28750   0.25750   0.44600   0.12226
  19        2S          0.06071   0.03505  -0.04926  -0.08533  -0.03510
  20 4   H  1S          0.49796  -0.28750   0.25750  -0.44600   0.12226
  21        2S         -0.06071   0.03505  -0.04926   0.08533  -0.03510
  22 5   C  1S          0.00000   0.00000   0.00000   0.00000   0.07112
  23        2S          0.00000   0.00000   0.00000   0.00000  -0.04173
  24        2PX        -0.14442   0.00000   0.00000  -0.08203   0.00000
  25        2PY         0.00000  -0.14442  -0.08203   0.00000   0.00000
  26        2PZ         0.00000   0.00000   0.00000   0.00000  -0.36807
  27        3S          0.00000   0.00000   0.00000   0.00000  -1.37986
  28        3PX        -0.25371   0.00000   0.00000  -0.26228   0.00000
  29        3PY         0.00000  -0.25371  -0.26228   0.00000   0.00000
  30        3PZ         0.00000   0.00000   0.00000   0.00000  -0.89625
  31        4XX         0.00000  -0.62887  -0.41532   0.00000   0.55628
  32        4YY         0.00000   0.62887   0.41532   0.00000   0.55628
  33        4ZZ         0.00000   0.00000   0.00000   0.00000  -0.92457
  34        4XY        -0.72615   0.00000   0.00000  -0.47957   0.00000
  35        4XZ         0.36452   0.00000   0.00000   0.68143   0.00000
  36        4YZ         0.00000   0.36452   0.68143   0.00000   0.00000
  37 6   H  1S          0.00000  -0.57500  -0.51499   0.00000  -0.12226
  38        2S          0.00000   0.07010   0.09853   0.00000   0.03510
  39 7   H  1S         -0.49796   0.28750   0.25750  -0.44600  -0.12226
  40        2S          0.06071  -0.03505  -0.04926   0.08533   0.03510
  41 8   H  1S          0.49796   0.28750   0.25750   0.44600  -0.12226
  42        2S         -0.06071  -0.03505  -0.04926  -0.08533   0.03510
                          41        42
                       (A1G)--V  (A2U)--V
     Eigenvalues --     4.16208   4.37737
   1 1   C  1S         -0.35126  -0.35188
   2        2S          2.03367   2.02376
   3        2PX         0.00000   0.00000
   4        2PY         0.00000   0.00000
   5        2PZ        -0.03717   0.10644
   6        3S          1.48465   2.43007
   7        3PX         0.00000   0.00000
   8        3PY         0.00000   0.00000
   9        3PZ         0.12115  -0.21678
  10        4XX        -1.36987  -1.30799
  11        4YY        -1.36987  -1.30799
  12        4ZZ        -1.19040  -1.57621
  13        4XY         0.00000   0.00000
  14        4XZ         0.00000   0.00000
  15        4YZ         0.00000   0.00000
  16 2   H  1S          0.11930   0.05151
  17        2S         -0.38074  -0.39702
  18 3   H  1S          0.11930   0.05151
  19        2S         -0.38074  -0.39702
  20 4   H  1S          0.11930   0.05151
  21        2S         -0.38074  -0.39702
  22 5   C  1S         -0.35126   0.35188
  23        2S          2.03367  -2.02376
  24        2PX         0.00000   0.00000
  25        2PY         0.00000   0.00000
  26        2PZ         0.03717   0.10644
  27        3S          1.48465  -2.43007
  28        3PX         0.00000   0.00000
  29        3PY         0.00000   0.00000
  30        3PZ        -0.12115  -0.21678
  31        4XX        -1.36987   1.30799
  32        4YY        -1.36987   1.30799
  33        4ZZ        -1.19040   1.57621
  34        4XY         0.00000   0.00000
  35        4XZ         0.00000   0.00000
  36        4YZ         0.00000   0.00000
  37 6   H  1S          0.11930  -0.05151
  38        2S         -0.38074   0.39702
  39 7   H  1S          0.11930  -0.05151
  40        2S         -0.38074   0.39702
  41 8   H  1S          0.11930  -0.05151
  42        2S         -0.38074   0.39702
     Density Matrix:
                           1         2         3         4         5
   1 1   C  1S          2.05057
   2        2S         -0.05315   0.30118
   3        2PX         0.00000   0.00000   0.40926
   4        2PY         0.00000   0.00000   0.00000   0.40926
   5        2PZ        -0.00408   0.00485   0.00000   0.00000   0.38182
   6        3S         -0.17174   0.26518   0.00000   0.00000  -0.00438
   7        3PX         0.00000   0.00000   0.18547   0.00000   0.00000
   8        3PY         0.00000   0.00000   0.00000   0.18547   0.00000
   9        3PZ        -0.00056   0.00311   0.00000   0.00000   0.17920
  10        4XX        -0.01927   0.00118   0.00000  -0.01689   0.01032
  11        4YY        -0.01927   0.00118   0.00000   0.01689   0.01032
  12        4ZZ        -0.01576  -0.00649   0.00000   0.00000  -0.01469
  13        4XY         0.00000   0.00000  -0.01950   0.00000   0.00000
  14        4XZ         0.00000   0.00000   0.01501   0.00000   0.00000
  15        4YZ         0.00000   0.00000   0.00000   0.01501   0.00000
  16 2   H  1S         -0.05503   0.10562   0.00000   0.25333   0.08662
  17        2S         -0.00892   0.02779   0.00000   0.21662   0.07505
  18 3   H  1S         -0.05503   0.10562  -0.21939  -0.12667   0.08662
  19        2S         -0.00892   0.02779  -0.18760  -0.10831   0.07505
  20 4   H  1S         -0.05503   0.10562   0.21939  -0.12667   0.08662
  21        2S         -0.00892   0.02779   0.18760  -0.10831   0.07505
  22 5   C  1S          0.00969  -0.01684   0.00000   0.00000   0.06327
  23        2S         -0.01684   0.02525   0.00000   0.00000  -0.12822
  24        2PX         0.00000   0.00000   0.00070   0.00000   0.00000
  25        2PY         0.00000   0.00000   0.00000   0.00070   0.00000
  26        2PZ        -0.06327   0.12822   0.00000   0.00000  -0.31643
  27        3S          0.00308   0.00601   0.00000   0.00000  -0.13281
  28        3PX         0.00000   0.00000  -0.00423   0.00000   0.00000
  29        3PY         0.00000   0.00000   0.00000  -0.00423   0.00000
  30        3PZ        -0.01720   0.04475   0.00000   0.00000  -0.15584
  31        4XX         0.00203  -0.00454   0.00000  -0.00231   0.00706
  32        4YY         0.00203  -0.00454   0.00000   0.00231   0.00706
  33        4ZZ        -0.00670   0.01169   0.00000   0.00000  -0.00620
  34        4XY         0.00000   0.00000  -0.00267   0.00000   0.00000
  35        4XZ         0.00000   0.00000   0.01173   0.00000   0.00000
  36        4YZ         0.00000   0.00000   0.00000   0.01173   0.00000
  37 6   H  1S          0.00746  -0.01872   0.00000   0.02359   0.02553
  38        2S          0.00869  -0.01856   0.00000   0.04741   0.05241
  39 7   H  1S          0.00746  -0.01872   0.02043  -0.01180   0.02553
  40        2S          0.00869  -0.01856   0.04106  -0.02370   0.05241
  41 8   H  1S          0.00746  -0.01872  -0.02043  -0.01180   0.02553
  42        2S          0.00869  -0.01856  -0.04106  -0.02370   0.05241
                           6         7         8         9        10
   6        3S          0.24305
   7        3PX         0.00000   0.08410
   8        3PY         0.00000   0.00000   0.08410
   9        3PZ        -0.00270   0.00000   0.00000   0.08509
  10        4XX         0.00207   0.00000  -0.00768   0.00476   0.00118
  11        4YY         0.00207   0.00000   0.00768   0.00476  -0.00024
  12        4ZZ        -0.00494   0.00000   0.00000  -0.00647  -0.00030
  13        4XY         0.00000  -0.00887   0.00000   0.00000   0.00000
  14        4XZ         0.00000   0.00693   0.00000   0.00000   0.00000
  15        4YZ         0.00000   0.00000   0.00693   0.00000  -0.00069
  16 2   H  1S          0.09319   0.00000   0.11507   0.04097  -0.00756
  17        2S          0.02264   0.00000   0.09870   0.03556  -0.00708
  18 3   H  1S          0.09319  -0.09965  -0.05754   0.04097   0.00833
  19        2S          0.02264  -0.08548  -0.04935   0.03556   0.00674
  20 4   H  1S          0.09319   0.09965  -0.05754   0.04097   0.00833
  21        2S          0.02264   0.08548  -0.04935   0.03556   0.00674
  22 5   C  1S          0.00308   0.00000   0.00000   0.01720   0.00203
  23        2S          0.00601   0.00000   0.00000  -0.04475  -0.00454
  24        2PX         0.00000  -0.00423   0.00000   0.00000   0.00000
  25        2PY         0.00000   0.00000  -0.00423   0.00000   0.00231
  26        2PZ         0.13281   0.00000   0.00000  -0.15584  -0.00706
  27        3S         -0.01011   0.00000   0.00000  -0.04845  -0.00472
  28        3PX         0.00000  -0.00398   0.00000   0.00000   0.00000
  29        3PY         0.00000   0.00000  -0.00398   0.00000   0.00124
  30        3PZ         0.04845   0.00000   0.00000  -0.07672  -0.00365
  31        4XX        -0.00472   0.00000  -0.00124   0.00365   0.00033
  32        4YY        -0.00472   0.00000   0.00124   0.00365  -0.00005
  33        4ZZ         0.01135   0.00000   0.00000  -0.00338  -0.00004
  34        4XY         0.00000  -0.00143   0.00000   0.00000   0.00000
  35        4XZ         0.00000   0.00548   0.00000   0.00000   0.00000
  36        4YZ         0.00000   0.00000   0.00548   0.00000  -0.00057
  37 6   H  1S         -0.02678   0.00000   0.01351   0.01914  -0.00243
  38        2S         -0.02169   0.00000   0.02389   0.02745  -0.00214
  39 7   H  1S         -0.02678   0.01170  -0.00675   0.01914   0.00120
  40        2S         -0.02169   0.02069  -0.01195   0.02745   0.00265
  41 8   H  1S         -0.02678  -0.01170  -0.00675   0.01914   0.00120
  42        2S         -0.02169  -0.02069  -0.01195   0.02745   0.00265
                          11        12        13        14        15
  11        4YY         0.00118
  12        4ZZ        -0.00030   0.00105
  13        4XY         0.00000   0.00000   0.00095
  14        4XZ         0.00000   0.00000  -0.00079   0.00089
  15        4YZ         0.00069   0.00000   0.00000   0.00000   0.00089
  16 2   H  1S          0.01363  -0.00520   0.00000   0.00000   0.00998
  17        2S          0.01135  -0.00330   0.00000   0.00000   0.00932
  18 3   H  1S         -0.00226  -0.00520   0.01059  -0.00864  -0.00499
  19        2S         -0.00247  -0.00330   0.00921  -0.00807  -0.00466
  20 4   H  1S         -0.00226  -0.00520  -0.01059   0.00864  -0.00499
  21        2S         -0.00247  -0.00330  -0.00921   0.00807  -0.00466
  22 5   C  1S          0.00203  -0.00670   0.00000   0.00000   0.00000
  23        2S         -0.00454   0.01169   0.00000   0.00000   0.00000
  24        2PX         0.00000   0.00000   0.00267  -0.01173   0.00000
  25        2PY        -0.00231   0.00000   0.00000   0.00000  -0.01173
  26        2PZ        -0.00706   0.00620   0.00000   0.00000   0.00000
  27        3S         -0.00472   0.01135   0.00000   0.00000   0.00000
  28        3PX         0.00000   0.00000   0.00143  -0.00548   0.00000
  29        3PY        -0.00124   0.00000   0.00000   0.00000  -0.00548
  30        3PZ        -0.00365   0.00338   0.00000   0.00000   0.00000
  31        4XX        -0.00005  -0.00004   0.00000   0.00000  -0.00057
  32        4YY         0.00033  -0.00004   0.00000   0.00000   0.00057
  33        4ZZ        -0.00004  -0.00021   0.00000   0.00000   0.00000
  34        4XY         0.00000   0.00000   0.00026  -0.00066   0.00000
  35        4XZ         0.00000   0.00000  -0.00066   0.00086   0.00000
  36        4YZ         0.00057   0.00000   0.00000   0.00000   0.00086
  37 6   H  1S          0.00241   0.00273   0.00000   0.00000   0.00814
  38        2S          0.00425  -0.00031   0.00000   0.00000   0.00796
  39 7   H  1S         -0.00122   0.00273  -0.00242   0.00705  -0.00407
  40        2S         -0.00054  -0.00031  -0.00320   0.00690  -0.00398
  41 8   H  1S         -0.00122   0.00273   0.00242  -0.00705  -0.00407
  42        2S         -0.00054  -0.00031   0.00320  -0.00690  -0.00398
                          16        17        18        19        20
  16 2   H  1S          0.21478
  17        2S          0.16331   0.13746
  18 3   H  1S         -0.02256  -0.04204   0.21478
  19        2S         -0.04204  -0.04290   0.16331   0.13746
  20 4   H  1S         -0.02256  -0.04204  -0.02256  -0.04204   0.21478
  21        2S         -0.04204  -0.04290  -0.04204  -0.04290   0.16331
  22 5   C  1S          0.00746   0.00869   0.00746   0.00869   0.00746
  23        2S         -0.01872  -0.01856  -0.01872  -0.01856  -0.01872
  24        2PX         0.00000   0.00000   0.02043   0.04106  -0.02043
  25        2PY        -0.02359  -0.04741   0.01180   0.02370   0.01180
  26        2PZ        -0.02553  -0.05241  -0.02553  -0.05241  -0.02553
  27        3S         -0.02678  -0.02169  -0.02678  -0.02169  -0.02678
  28        3PX         0.00000   0.00000   0.01170   0.02069  -0.01170
  29        3PY        -0.01351  -0.02389   0.00675   0.01195   0.00675
  30        3PZ        -0.01914  -0.02745  -0.01914  -0.02745  -0.01914
  31        4XX        -0.00243  -0.00214   0.00120   0.00265   0.00120
  32        4YY         0.00241   0.00425  -0.00122  -0.00054  -0.00122
  33        4ZZ         0.00273  -0.00031   0.00273  -0.00031   0.00273
  34        4XY         0.00000   0.00000   0.00242   0.00320  -0.00242
  35        4XZ         0.00000   0.00000  -0.00705  -0.00690   0.00705
  36        4YZ         0.00814   0.00796  -0.00407  -0.00398  -0.00407
  37 6   H  1S          0.02896   0.04733  -0.01525  -0.01577  -0.01525
  38        2S          0.04733   0.05976  -0.01577  -0.01583  -0.01577
  39 7   H  1S         -0.01525  -0.01577  -0.01525  -0.01577   0.02896
  40        2S         -0.01577  -0.01583  -0.01577  -0.01583   0.04733
  41 8   H  1S         -0.01525  -0.01577   0.02896   0.04733  -0.01525
  42        2S         -0.01577  -0.01583   0.04733   0.05976  -0.01577
                          21        22        23        24        25
  21        2S          0.13746
  22 5   C  1S          0.00869   2.05057
  23        2S         -0.01856  -0.05315   0.30118
  24        2PX        -0.04106   0.00000   0.00000   0.40926
  25        2PY         0.02370   0.00000   0.00000   0.00000   0.40926
  26        2PZ        -0.05241   0.00408  -0.00485   0.00000   0.00000
  27        3S         -0.02169  -0.17174   0.26518   0.00000   0.00000
  28        3PX        -0.02069   0.00000   0.00000   0.18547   0.00000
  29        3PY         0.01195   0.00000   0.00000   0.00000   0.18547
  30        3PZ        -0.02745   0.00056  -0.00311   0.00000   0.00000
  31        4XX         0.00265  -0.01927   0.00118   0.00000   0.01689
  32        4YY        -0.00054  -0.01927   0.00118   0.00000  -0.01689
  33        4ZZ        -0.00031  -0.01576  -0.00649   0.00000   0.00000
  34        4XY        -0.00320   0.00000   0.00000   0.01950   0.00000
  35        4XZ         0.00690   0.00000   0.00000  -0.01501   0.00000
  36        4YZ        -0.00398   0.00000   0.00000   0.00000  -0.01501
  37 6   H  1S         -0.01577  -0.05503   0.10562   0.00000  -0.25333
  38        2S         -0.01583  -0.00892   0.02779   0.00000  -0.21662
  39 7   H  1S          0.04733  -0.05503   0.10562  -0.21939   0.12667
  40        2S          0.05976  -0.00892   0.02779  -0.18760   0.10831
  41 8   H  1S         -0.01577  -0.05503   0.10562   0.21939   0.12667
  42        2S         -0.01583  -0.00892   0.02779   0.18760   0.10831
                          26        27        28        29        30
  26        2PZ         0.38182
  27        3S          0.00438   0.24305
  28        3PX         0.00000   0.00000   0.08410
  29        3PY         0.00000   0.00000   0.00000   0.08410
  30        3PZ         0.17920   0.00270   0.00000   0.00000   0.08509
  31        4XX        -0.01032   0.00207   0.00000   0.00768  -0.00476
  32        4YY        -0.01032   0.00207   0.00000  -0.00768  -0.00476
  33        4ZZ         0.01469  -0.00494   0.00000   0.00000   0.00647
  34        4XY         0.00000   0.00000   0.00887   0.00000   0.00000
  35        4XZ         0.00000   0.00000  -0.00693   0.00000   0.00000
  36        4YZ         0.00000   0.00000   0.00000  -0.00693   0.00000
  37 6   H  1S         -0.08662   0.09319   0.00000  -0.11507  -0.04097
  38        2S         -0.07505   0.02264   0.00000  -0.09870  -0.03556
  39 7   H  1S         -0.08662   0.09319  -0.09965   0.05754  -0.04097
  40        2S         -0.07505   0.02264  -0.08548   0.04935  -0.03556
  41 8   H  1S         -0.08662   0.09319   0.09965   0.05754  -0.04097
  42        2S         -0.07505   0.02264   0.08548   0.04935  -0.03556
                          31        32        33        34        35
  31        4XX         0.00118
  32        4YY        -0.00024   0.00118
  33        4ZZ        -0.00030  -0.00030   0.00105
  34        4XY         0.00000   0.00000   0.00000   0.00095
  35        4XZ         0.00000   0.00000   0.00000  -0.00079   0.00089
  36        4YZ        -0.00069   0.00069   0.00000   0.00000   0.00000
  37 6   H  1S         -0.00756   0.01363  -0.00520   0.00000   0.00000
  38        2S         -0.00708   0.01135  -0.00330   0.00000   0.00000
  39 7   H  1S          0.00833  -0.00226  -0.00520  -0.01059   0.00864
  40        2S          0.00674  -0.00247  -0.00330  -0.00921   0.00807
  41 8   H  1S          0.00833  -0.00226  -0.00520   0.01059  -0.00864
  42        2S          0.00674  -0.00247  -0.00330   0.00921  -0.00807
                          36        37        38        39        40
  36        4YZ         0.00089
  37 6   H  1S          0.00998   0.21478
  38        2S          0.00932   0.16331   0.13746
  39 7   H  1S         -0.00499  -0.02256  -0.04204   0.21478
  40        2S         -0.00466  -0.04204  -0.04290   0.16331   0.13746
  41 8   H  1S         -0.00499  -0.02256  -0.04204  -0.02256  -0.04204
  42        2S         -0.00466  -0.04204  -0.04290  -0.04204  -0.04290
                          41        42
  41 8   H  1S          0.21478
  42        2S          0.16331   0.13746
    Full Mulliken population analysis:
                           1         2         3         4         5
   1 1   C  1S          2.05057
   2        2S         -0.01164   0.30118
   3        2PX         0.00000   0.00000   0.40926
   4        2PY         0.00000   0.00000   0.00000   0.40926
   5        2PZ         0.00000   0.00000   0.00000   0.00000   0.38182
   6        3S         -0.03164   0.21540   0.00000   0.00000   0.00000
   7        3PX         0.00000   0.00000   0.10567   0.00000   0.00000
   8        3PY         0.00000   0.00000   0.00000   0.10567   0.00000
   9        3PZ         0.00000   0.00000   0.00000   0.00000   0.10210
  10        4XX        -0.00152   0.00084   0.00000   0.00000   0.00000
  11        4YY        -0.00152   0.00084   0.00000   0.00000   0.00000
  12        4ZZ        -0.00125  -0.00461   0.00000   0.00000   0.00000
  13        4XY         0.00000   0.00000   0.00000   0.00000   0.00000
  14        4XZ         0.00000   0.00000   0.00000   0.00000   0.00000
  15        4YZ         0.00000   0.00000   0.00000   0.00000   0.00000
  16 2   H  1S         -0.00197   0.03025   0.00000   0.09125   0.01103
  17        2S         -0.00084   0.01348   0.00000   0.05434   0.00666
  18 3   H  1S         -0.00197   0.03025   0.06844   0.02281   0.01103
  19        2S         -0.00084   0.01348   0.04075   0.01358   0.00666
  20 4   H  1S         -0.00197   0.03025   0.06844   0.02281   0.01103
  21        2S         -0.00084   0.01348   0.04075   0.01358   0.00666
  22 5   C  1S          0.00000  -0.00012   0.00000   0.00000  -0.00116
  23        2S         -0.00012   0.00306   0.00000   0.00000   0.02389
  24        2PX         0.00000   0.00000   0.00004   0.00000   0.00000
  25        2PY         0.00000   0.00000   0.00000   0.00004   0.00000
  26        2PZ        -0.00116   0.02389   0.00000   0.00000   0.08020
  27        3S          0.00014   0.00168   0.00000   0.00000   0.02960
  28        3PX         0.00000   0.00000  -0.00079   0.00000   0.00000
  29        3PY         0.00000   0.00000   0.00000  -0.00079   0.00000
  30        3PZ        -0.00184   0.02238   0.00000   0.00000   0.03571
  31        4XX         0.00000  -0.00022   0.00000   0.00000  -0.00059
  32        4YY         0.00000  -0.00022   0.00000   0.00000  -0.00059
  33        4ZZ        -0.00012   0.00259   0.00000   0.00000   0.00194
  34        4XY         0.00000   0.00000   0.00000   0.00000   0.00000
  35        4XZ         0.00000   0.00000   0.00123   0.00000   0.00000
  36        4YZ         0.00000   0.00000   0.00000   0.00123   0.00000
  37 6   H  1S          0.00000  -0.00014   0.00000  -0.00018  -0.00036
  38        2S          0.00012  -0.00198   0.00000  -0.00247  -0.00513
  39 7   H  1S          0.00000  -0.00014  -0.00013  -0.00004  -0.00036
  40        2S          0.00012  -0.00198  -0.00185  -0.00062  -0.00513
  41 8   H  1S          0.00000  -0.00014  -0.00013  -0.00004  -0.00036
  42        2S          0.00012  -0.00198  -0.00185  -0.00062  -0.00513
                           6         7         8         9        10
   6        3S          0.24305
   7        3PX         0.00000   0.08410
   8        3PY         0.00000   0.00000   0.08410
   9        3PZ         0.00000   0.00000   0.00000   0.08509
  10        4XX         0.00131   0.00000   0.00000   0.00000   0.00118
  11        4YY         0.00131   0.00000   0.00000   0.00000  -0.00008
  12        4ZZ        -0.00311   0.00000   0.00000   0.00000  -0.00010
  13        4XY         0.00000   0.00000   0.00000   0.00000   0.00000
  14        4XZ         0.00000   0.00000   0.00000   0.00000   0.00000
  15        4YZ         0.00000   0.00000   0.00000   0.00000   0.00000
  16 2   H  1S          0.03588   0.00000   0.05602   0.00705  -0.00094
  17        2S          0.01615   0.00000   0.05390   0.00687  -0.00254
  18 3   H  1S          0.03588   0.04201   0.01400   0.00705   0.00296
  19        2S          0.01615   0.04043   0.01348   0.00687   0.00277
  20 4   H  1S          0.03588   0.04201   0.01400   0.00705   0.00296
  21        2S          0.01615   0.04043   0.01348   0.00687   0.00277
  22 5   C  1S          0.00014   0.00000   0.00000  -0.00184   0.00000
  23        2S          0.00168   0.00000   0.00000   0.02238  -0.00022
  24        2PX         0.00000  -0.00079   0.00000   0.00000   0.00000
  25        2PY         0.00000   0.00000  -0.00079   0.00000   0.00000
  26        2PZ         0.02960   0.00000   0.00000   0.03571  -0.00059
  27        3S         -0.00495   0.00000   0.00000   0.02835  -0.00091
  28        3PX         0.00000  -0.00195   0.00000   0.00000   0.00000
  29        3PY         0.00000   0.00000  -0.00195   0.00000   0.00000
  30        3PZ         0.02835   0.00000   0.00000   0.01611  -0.00139
  31        4XX        -0.00091   0.00000   0.00000  -0.00139   0.00001
  32        4YY        -0.00091   0.00000   0.00000  -0.00139   0.00000
  33        4ZZ         0.00329   0.00000   0.00000   0.00139   0.00000
  34        4XY         0.00000   0.00000   0.00000   0.00000   0.00000
  35        4XZ         0.00000   0.00077   0.00000   0.00000   0.00000
  36        4YZ         0.00000   0.00000   0.00077   0.00000   0.00000
  37 6   H  1S         -0.00192   0.00000  -0.00122  -0.00324   0.00000
  38        2S         -0.00557   0.00000  -0.00470  -0.01015  -0.00015
  39 7   H  1S         -0.00192  -0.00091  -0.00030  -0.00324   0.00000
  40        2S         -0.00557  -0.00352  -0.00117  -0.01015   0.00021
  41 8   H  1S         -0.00192  -0.00091  -0.00030  -0.00324   0.00000
  42        2S         -0.00557  -0.00352  -0.00117  -0.01015   0.00021
                          11        12        13        14        15
  11        4YY         0.00118
  12        4ZZ        -0.00010   0.00105
  13        4XY         0.00000   0.00000   0.00095
  14        4XZ         0.00000   0.00000   0.00000   0.00089
  15        4YZ         0.00000   0.00000   0.00000   0.00000   0.00089
  16 2   H  1S          0.00590  -0.00085   0.00000   0.00000   0.00189
  17        2S          0.00487  -0.00121   0.00000   0.00000   0.00040
  18 3   H  1S         -0.00046  -0.00085   0.00245   0.00141   0.00047
  19        2S         -0.00093  -0.00121   0.00049   0.00030   0.00010
  20 4   H  1S         -0.00046  -0.00085   0.00245   0.00141   0.00047
  21        2S         -0.00093  -0.00121   0.00049   0.00030   0.00010
  22 5   C  1S          0.00000  -0.00012   0.00000   0.00000   0.00000
  23        2S         -0.00022   0.00259   0.00000   0.00000   0.00000
  24        2PX         0.00000   0.00000   0.00000   0.00123   0.00000
  25        2PY         0.00000   0.00000   0.00000   0.00000   0.00123
  26        2PZ        -0.00059   0.00194   0.00000   0.00000   0.00000
  27        3S         -0.00091   0.00329   0.00000   0.00000   0.00000
  28        3PX         0.00000   0.00000   0.00000   0.00077   0.00000
  29        3PY         0.00000   0.00000   0.00000   0.00000   0.00077
  30        3PZ        -0.00139   0.00139   0.00000   0.00000   0.00000
  31        4XX         0.00000   0.00000   0.00000   0.00000   0.00000
  32        4YY         0.00001   0.00000   0.00000   0.00000   0.00000
  33        4ZZ         0.00000  -0.00008   0.00000   0.00000   0.00000
  34        4XY         0.00000   0.00000   0.00001   0.00000   0.00000
  35        4XZ         0.00000   0.00000   0.00000  -0.00017   0.00000
  36        4YZ         0.00000   0.00000   0.00000   0.00000  -0.00017
  37 6   H  1S          0.00001   0.00003   0.00000   0.00000   0.00008
  38        2S          0.00035  -0.00004   0.00000   0.00000   0.00035
  39 7   H  1S          0.00000   0.00003   0.00001   0.00006   0.00002
  40        2S         -0.00004  -0.00004   0.00003   0.00026   0.00009
  41 8   H  1S          0.00000   0.00003   0.00001   0.00006   0.00002
  42        2S         -0.00004  -0.00004   0.00003   0.00026   0.00009
                          16        17        18        19        20
  16 2   H  1S          0.21478
  17        2S          0.10750   0.13746
  18 3   H  1S         -0.00048  -0.00662   0.21478
  19        2S         -0.00662  -0.01781   0.10750   0.13746
  20 4   H  1S         -0.00048  -0.00662  -0.00048  -0.00662   0.21478
  21        2S         -0.00662  -0.01781  -0.00662  -0.01781   0.10750
  22 5   C  1S          0.00000   0.00012   0.00000   0.00012   0.00000
  23        2S         -0.00014  -0.00198  -0.00014  -0.00198  -0.00014
  24        2PX         0.00000   0.00000  -0.00013  -0.00185  -0.00013
  25        2PY        -0.00018  -0.00247  -0.00004  -0.00062  -0.00004
  26        2PZ        -0.00036  -0.00513  -0.00036  -0.00513  -0.00036
  27        3S         -0.00192  -0.00557  -0.00192  -0.00557  -0.00192
  28        3PX         0.00000   0.00000  -0.00091  -0.00352  -0.00091
  29        3PY        -0.00122  -0.00470  -0.00030  -0.00117  -0.00030
  30        3PZ        -0.00324  -0.01015  -0.00324  -0.01015  -0.00324
  31        4XX         0.00000  -0.00015   0.00000   0.00021   0.00000
  32        4YY         0.00001   0.00035   0.00000  -0.00004   0.00000
  33        4ZZ         0.00003  -0.00004   0.00003  -0.00004   0.00003
  34        4XY         0.00000   0.00000   0.00001   0.00003   0.00001
  35        4XZ         0.00000   0.00000   0.00006   0.00026   0.00006
  36        4YZ         0.00008   0.00035   0.00002   0.00009   0.00002
  37 6   H  1S          0.00000   0.00044  -0.00001  -0.00060  -0.00001
  38        2S          0.00044   0.00429  -0.00060  -0.00274  -0.00060
  39 7   H  1S         -0.00001  -0.00060  -0.00001  -0.00060   0.00000
  40        2S         -0.00060  -0.00274  -0.00060  -0.00274   0.00044
  41 8   H  1S         -0.00001  -0.00060   0.00000   0.00044  -0.00001
  42        2S         -0.00060  -0.00274   0.00044   0.00429  -0.00060
                          21        22        23        24        25
  21        2S          0.13746
  22 5   C  1S          0.00012   2.05057
  23        2S         -0.00198  -0.01164   0.30118
  24        2PX        -0.00185   0.00000   0.00000   0.40926
  25        2PY        -0.00062   0.00000   0.00000   0.00000   0.40926
  26        2PZ        -0.00513   0.00000   0.00000   0.00000   0.00000
  27        3S         -0.00557  -0.03164   0.21540   0.00000   0.00000
  28        3PX        -0.00352   0.00000   0.00000   0.10567   0.00000
  29        3PY        -0.00117   0.00000   0.00000   0.00000   0.10567
  30        3PZ        -0.01015   0.00000   0.00000   0.00000   0.00000
  31        4XX         0.00021  -0.00152   0.00084   0.00000   0.00000
  32        4YY        -0.00004  -0.00152   0.00084   0.00000   0.00000
  33        4ZZ        -0.00004  -0.00125  -0.00461   0.00000   0.00000
  34        4XY         0.00003   0.00000   0.00000   0.00000   0.00000
  35        4XZ         0.00026   0.00000   0.00000   0.00000   0.00000
  36        4YZ         0.00009   0.00000   0.00000   0.00000   0.00000
  37 6   H  1S         -0.00060  -0.00197   0.03025   0.00000   0.09125
  38        2S         -0.00274  -0.00084   0.01348   0.00000   0.05434
  39 7   H  1S          0.00044  -0.00197   0.03025   0.06844   0.02281
  40        2S          0.00429  -0.00084   0.01348   0.04075   0.01358
  41 8   H  1S         -0.00060  -0.00197   0.03025   0.06844   0.02281
  42        2S         -0.00274  -0.00084   0.01348   0.04075   0.01358
                          26        27        28        29        30
[...]
     21 -0.283803D-01  0.121034D-02  0.919990D-03  0.000000D+00  0.000000D+00
     22  0.353162D-02  0.671244D-02 -0.963967D-02 -0.976116D-02 -0.163484D-01
     23  0.671244D-02  0.888425D-02 -0.132142D-01 -0.334827D-03 -0.986828D-04
     24  0.963966D-02  0.132142D-01 -0.213557D-01 -0.144144D-03 -0.148864D-02
               21            22            23            24 
     21  0.484567D-01
     22  0.283803D-01  0.796715D-01
     23 -0.121033D-02  0.439644D-01  0.121482D+00
     24  0.919982D-03 -0.763559D-01 -0.113954D+00  0.238935D+00
 FormGI is forming the generalized inverse of G from B-inverse, IUseBI=4.
 Force constants in internal coordinates: 
                1             2             3             4             5 
      1  0.338358D+00
      2  0.302144D-02  0.338358D+00
      3  0.302144D-02  0.302163D-02  0.338358D+00
      4  0.580474D-02  0.580444D-02  0.580444D-02  0.290870D+00
      5 -0.111067D-02  0.618341D-03  0.618341D-03  0.580474D-02  0.338358D+00
      6  0.618341D-03  0.618141D-03 -0.111008D-02  0.580444D-02  0.302144D-02
      7  0.618341D-03 -0.111008D-02  0.618141D-03  0.580444D-02  0.302144D-02
      8  0.556636D-02  0.556679D-02  0.261320D-03 -0.163441D-01 -0.111460D-02
      9  0.556636D-02  0.261320D-03  0.556679D-02 -0.163441D-01 -0.111460D-02
     10  0.277007D-03 -0.547871D-02 -0.547871D-02  0.153194D-01  0.399128D-02
     11  0.261194D-03  0.556668D-02  0.556668D-02 -0.163438D-01  0.291495D-03
     12 -0.547838D-02  0.276839D-03 -0.547869D-02  0.153197D-01 -0.108751D-02
     13 -0.547838D-02 -0.547869D-02  0.276839D-03  0.153197D-01 -0.108751D-02
     14  0.399128D-02 -0.108725D-02 -0.108725D-02  0.153194D-01  0.277007D-03
     15 -0.108751D-02 -0.108711D-02  0.399130D-02  0.153197D-01 -0.547838D-02
     16 -0.108751D-02  0.399130D-02 -0.108711D-02  0.153197D-01 -0.547838D-02
     17 -0.111460D-02  0.291364D-03 -0.111493D-02 -0.163441D-01  0.556636D-02
     18 -0.111460D-02 -0.111493D-02  0.291364D-03 -0.163441D-01  0.556636D-02
     19  0.291495D-03 -0.111488D-02 -0.111488D-02 -0.163438D-01  0.261194D-03
     20  0.000000D+00 -0.299278D-02  0.299278D-02  0.000000D+00  0.000000D+00
     21  0.551384D-03 -0.409527D-02  0.354395D-02  0.000000D+00  0.354384D-02
     22 -0.551384D-03 -0.354395D-02  0.409527D-02  0.000000D+00 -0.354384D-02
     23  0.354384D-02  0.551262D-03 -0.409518D-02  0.000000D+00  0.551384D-03
     24  0.409522D-02 -0.551226D-03 -0.354402D-02  0.000000D+00  0.409522D-02
     25  0.299246D-02  0.000000D+00 -0.299269D-02  0.000000D+00 -0.299246D-02
     26 -0.354384D-02  0.409518D-02 -0.551262D-03  0.000000D+00 -0.551384D-03
     27 -0.299246D-02  0.299269D-02  0.000000D+00  0.000000D+00  0.299246D-02
     28 -0.409522D-02  0.354402D-02  0.551226D-03  0.000000D+00 -0.409522D-02
                6             7             8             9            10 
      6  0.338358D+00
      7  0.302163D-02  0.338358D+00
      8  0.291364D-03 -0.111493D-02  0.535629D-01
      9 -0.111493D-02  0.291364D-03  0.963742D-02  0.535629D-01
     10 -0.108725D-02 -0.108725D-02 -0.412076D-01 -0.412076D-01  0.104642D+00
     11 -0.111488D-02 -0.111488D-02  0.963735D-02  0.963735D-02  0.141431D-01
     12 -0.108711D-02  0.399130D-02 -0.412079D-01  0.141431D-01 -0.203247D-01
     13  0.399130D-02 -0.108711D-02  0.141431D-01 -0.412079D-01 -0.203247D-01
     14 -0.547871D-02 -0.547871D-02 -0.396571D-02 -0.396571D-02  0.177482D-01
     15  0.276839D-03 -0.547869D-02  0.453054D-02 -0.396584D-02 -0.728021D-02
     16 -0.547869D-02  0.276839D-03 -0.396584D-02  0.453054D-02 -0.728021D-02
     17  0.556679D-02  0.261320D-03  0.305980D-03  0.301635D-02 -0.396571D-02
     18  0.261320D-03  0.556679D-02  0.301635D-02  0.305980D-03 -0.396571D-02
     19  0.556668D-02  0.556668D-02  0.306103D-03  0.306103D-03  0.453045D-02
     20 -0.299278D-02  0.299278D-02 -0.686371D-02  0.686371D-02  0.000000D+00
     21  0.551262D-03 -0.409518D-02 -0.609283D-02  0.532189D-02  0.205425D-02
     22  0.409518D-02 -0.551262D-03 -0.532189D-02  0.609283D-02 -0.205425D-02
     23 -0.409527D-02  0.354395D-02  0.532200D-02  0.771000D-03  0.478604D-02
     24 -0.551226D-03 -0.354402D-02  0.609288D-02 -0.770825D-03  0.684030D-02
     25  0.299269D-02  0.000000D+00  0.686383D-02  0.000000D+00  0.273179D-02
     26 -0.354395D-02  0.409527D-02 -0.771000D-03 -0.532200D-02 -0.478604D-02
     27  0.000000D+00 -0.299269D-02  0.000000D+00 -0.686383D-02 -0.273179D-02
     28  0.354402D-02  0.551226D-03  0.770825D-03 -0.609288D-02 -0.684030D-02
               11            12            13            14            15 
     11  0.535629D-01
     12 -0.412076D-01  0.104643D+00
     13 -0.412076D-01 -0.203251D-01  0.104643D+00
     14  0.453045D-02 -0.728021D-02 -0.728021D-02  0.104642D+00
     15 -0.396582D-02 -0.728055D-02  0.177487D-01 -0.203247D-01  0.104643D+00
     16 -0.396582D-02  0.177487D-01 -0.728055D-02 -0.203247D-01 -0.203251D-01
     17  0.306103D-03  0.453054D-02 -0.396584D-02 -0.412076D-01 -0.412079D-01
     18  0.306103D-03 -0.396584D-02  0.453054D-02 -0.412076D-01  0.141431D-01
     19  0.301643D-02 -0.396582D-02 -0.396582D-02  0.141431D-01 -0.412076D-01
     20  0.000000D+00 -0.273185D-02  0.273185D-02  0.000000D+00 -0.273185D-02
     21  0.770894D-03 -0.684046D-02  0.478626D-02  0.478604D-02  0.205434D-02
     22 -0.770894D-03 -0.478626D-02  0.684046D-02 -0.478604D-02  0.684053D-02
     23 -0.609285D-02  0.205434D-02 -0.684053D-02  0.205425D-02 -0.684046D-02
     24 -0.532196D-02 -0.205428D-02 -0.478612D-02  0.684030D-02 -0.205428D-02
     25 -0.686374D-02  0.000000D+00 -0.273191D-02 -0.273179D-02  0.273191D-02
     26  0.609285D-02  0.684053D-02 -0.205434D-02 -0.205425D-02 -0.478626D-02
     27  0.686374D-02  0.273191D-02  0.000000D+00  0.273179D-02  0.000000D+00
     28  0.532196D-02  0.478612D-02  0.205428D-02 -0.684030D-02  0.478612D-02
               16            17            18            19            20 
     16  0.104643D+00
     17  0.141431D-01  0.535629D-01
     18 -0.412079D-01  0.963742D-02  0.535629D-01
     19 -0.412076D-01  0.963735D-02  0.963735D-02  0.535629D-01
     20  0.273185D-02 -0.686371D-02  0.686371D-02  0.000000D+00  0.143406D-01
     21 -0.684053D-02  0.532200D-02  0.771000D-03 -0.609285D-02  0.377805D-02
     22 -0.205434D-02 -0.771000D-03 -0.532200D-02  0.609285D-02  0.377805D-02
     23  0.478626D-02 -0.609283D-02  0.532189D-02  0.770894D-03  0.377805D-02
     24 -0.478612D-02  0.609288D-02 -0.770825D-03 -0.532196D-02 -0.678453D-02
     25  0.000000D+00  0.000000D+00 -0.686383D-02  0.686374D-02 -0.678453D-02
     26  0.684046D-02 -0.532189D-02  0.609283D-02 -0.770894D-03  0.377805D-02
     27 -0.273191D-02  0.686383D-02  0.000000D+00 -0.686374D-02 -0.678453D-02
     28  0.205428D-02  0.770825D-03 -0.609288D-02  0.532196D-02 -0.678453D-02
               21            22            23            24            25 
     21  0.151656D-01
     22  0.419052D-02  0.151656D-01
     23 -0.719707D-02 -0.760948D-02  0.151656D-01
     24  0.419052D-02 -0.719701D-02  0.419052D-02  0.151656D-01
     25 -0.678460D-02  0.377811D-02  0.377811D-02  0.377804D-02  0.143407D-01
     26 -0.760948D-02 -0.719707D-02  0.419052D-02 -0.719701D-02 -0.678460D-02
     27  0.377811D-02 -0.678460D-02 -0.678460D-02  0.377804D-02 -0.678467D-02
     28 -0.719701D-02  0.419052D-02 -0.719701D-02 -0.760950D-02  0.377804D-02
               26            27            28 
     26  0.151656D-01
     27  0.377811D-02  0.143407D-01
     28  0.419052D-02  0.377804D-02  0.151656D-01
 Leave Link  716 at Wed Nov 30 16:29:19 2016, MaxMem=    33554432 cpu:         0.2
 (Enter /home/gaussian/g09/l103.exe)

 GradGradGradGradGradGradGradGradGradGradGradGradGradGradGradGradGradGrad
 Berny optimization.
 Red2BG is reusing G-inverse.
 Internal  Forces:  Max     0.000074185 RMS     0.000033571
 Search for a local minimum.
 Step number   1 out of a maximum of    2
 All quantities printed in internal units (Hartrees-Bohrs-Radians)
 Second derivative matrix not updated -- analytic derivatives used.
 ITU=  0
     Eigenvalues ---    0.00231   0.04648   0.04648   0.04869   0.04869
     Eigenvalues ---    0.12417   0.12592   0.12592   0.12847   0.18086
     Eigenvalues ---    0.18086   0.30681   0.33485   0.33485   0.33751
     Eigenvalues ---    0.33751   0.34582   0.34806
 Angle between quadratic step and forces=   6.68 degrees.
 Linear search not attempted -- first point.
 Iteration  1 RMS(Cart)=  0.00013423 RMS(Int)=  0.00000000
 Iteration  2 RMS(Cart)=  0.00000000 RMS(Int)=  0.00000000
 ITry= 1 IFail=0 DXMaxC= 2.53D-04 DCOld= 1.00D+10 DXMaxT= 3.00D-01 DXLimC= 3.00D+00 Rises=F
 ClnCor:  largest displacement from symmetrization is 5.06D-09 for atom     8.
 Variable       Old X    -DE/DX   Delta X   Delta X   Delta X     New X
                                 (Linear)    (Quad)   (Total)
    R1        2.07163  -0.00007   0.00000  -0.00019  -0.00019   2.07145
    R2        2.07163  -0.00007   0.00000  -0.00019  -0.00019   2.07145
    R3        2.07163  -0.00007   0.00000  -0.00019  -0.00019   2.07145
    R4        2.89253  -0.00007   0.00000  -0.00021  -0.00021   2.89232
    R5        2.07163  -0.00007   0.00000  -0.00019  -0.00019   2.07145
    R6        2.07163  -0.00007   0.00000  -0.00019  -0.00019   2.07145
    R7        2.07163  -0.00007   0.00000  -0.00019  -0.00019   2.07145
    A1        1.87668   0.00001   0.00000   0.00004   0.00004   1.87672
    A2        1.87668   0.00001   0.00000   0.00004   0.00004   1.87672
    A3        1.94347  -0.00001   0.00000  -0.00004  -0.00004   1.94344
    A4        1.87668   0.00001   0.00000   0.00004   0.00004   1.87672
    A5        1.94347  -0.00001   0.00000  -0.00004  -0.00004   1.94344
    A6        1.94347  -0.00001   0.00000  -0.00004  -0.00004   1.94344
    A7        1.94347  -0.00001   0.00000  -0.00004  -0.00004   1.94344
    A8        1.94347  -0.00001   0.00000  -0.00004  -0.00004   1.94344
    A9        1.94347  -0.00001   0.00000  -0.00004  -0.00004   1.94344
   A10        1.87668   0.00001   0.00000   0.00004   0.00004   1.87672
   A11        1.87668   0.00001   0.00000   0.00004   0.00004   1.87672
   A12        1.87668   0.00001   0.00000   0.00004   0.00004   1.87672
    D1        3.14159   0.00000   0.00000   0.00000   0.00000   3.14159
    D2       -1.04720   0.00000   0.00000   0.00000   0.00000  -1.04720
    D3        1.04720   0.00000   0.00000   0.00000   0.00000   1.04720
    D4       -1.04720   0.00000   0.00000   0.00000   0.00000  -1.04720
    D5        1.04720   0.00000   0.00000   0.00000   0.00000   1.04720
    D6        3.14159   0.00000   0.00000   0.00000   0.00000   3.14159
    D7        1.04720   0.00000   0.00000   0.00000   0.00000   1.04720
    D8        3.14159   0.00000   0.00000   0.00000   0.00000   3.14159
    D9       -1.04720   0.00000   0.00000   0.00000   0.00000  -1.04720
         Item               Value     Threshold  Converged?
 Maximum Force            0.000074     0.000450     YES
 RMS     Force            0.000034     0.000300     YES
 Maximum Displacement     0.000253     0.001800     YES
 RMS     Displacement     0.000134     0.001200     YES
 Predicted change in Energy=-4.595702D-08
 Optimization completed.
    -- Stationary point found.
                           ----------------------------
                           !   Optimized Parameters   !
                           ! (Angstroms and Degrees)  !
 --------------------------                            --------------------------
 ! Name  Definition              Value          Derivative Info.                !
 --------------------------------------------------------------------------------
 ! R1    R(1,2)                  1.0963         -DE/DX =   -0.0001              !
 ! R2    R(1,3)                  1.0963         -DE/DX =   -0.0001              !
 ! R3    R(1,4)                  1.0963         -DE/DX =   -0.0001              !
 ! R4    R(1,5)                  1.5307         -DE/DX =   -0.0001              !
 ! R5    R(5,6)                  1.0963         -DE/DX =   -0.0001              !
 ! R6    R(5,7)                  1.0963         -DE/DX =   -0.0001              !
 ! R7    R(5,8)                  1.0963         -DE/DX =   -0.0001              !
 ! A1    A(2,1,3)              107.5259         -DE/DX =    0.0                 !
 ! A2    A(2,1,4)              107.5259         -DE/DX =    0.0                 !
 ! A3    A(2,1,5)              111.3528         -DE/DX =    0.0                 !
 ! A4    A(3,1,4)              107.5259         -DE/DX =    0.0                 !
 ! A5    A(3,1,5)              111.3528         -DE/DX =    0.0                 !
 ! A6    A(4,1,5)              111.3528         -DE/DX =    0.0                 !
 ! A7    A(1,5,6)              111.3528         -DE/DX =    0.0                 !
 ! A8    A(1,5,7)              111.3528         -DE/DX =    0.0                 !
 ! A9    A(1,5,8)              111.3528         -DE/DX =    0.0                 !
 ! A10   A(6,5,7)              107.5259         -DE/DX =    0.0                 !
 ! A11   A(6,5,8)              107.5259         -DE/DX =    0.0                 !
 ! A12   A(7,5,8)              107.5259         -DE/DX =    0.0                 !
 ! D1    D(2,1,5,6)            180.0            -DE/DX =    0.0                 !
 ! D2    D(2,1,5,7)            -60.0            -DE/DX =    0.0                 !
 ! D3    D(2,1,5,8)             60.0            -DE/DX =    0.0                 !
 ! D4    D(3,1,5,6)            -60.0            -DE/DX =    0.0                 !
 ! D5    D(3,1,5,7)             60.0            -DE/DX =    0.0                 !
 ! D6    D(3,1,5,8)            180.0            -DE/DX =    0.0                 !
 ! D7    D(4,1,5,6)             60.0            -DE/DX =    0.0                 !
 ! D8    D(4,1,5,7)            180.0            -DE/DX =    0.0                 !
 ! D9    D(4,1,5,8)            -60.0            -DE/DX =    0.0                 !
 --------------------------------------------------------------------------------
 GradGradGradGradGradGradGradGradGradGradGradGradGradGradGradGradGradGrad

 Leave Link  103 at Wed Nov 30 16:29:20 2016, MaxMem=    33554432 cpu:         0.0
 (Enter /home/gaussian/g09/l9999.exe)
 1\1\GINC-COMPUTE-3-2\Freq\RB3LYP\6-31G(d)\C2H6\JZHANGBM\30-Nov-2016\0\
 \#P Geom=AllCheck Guess=TCheck SCRF=Check GenChk RB3LYP/6-31G(d) Freq\
 \Title Card Required\\0,1\C,-1.4492205301,3.4204671708,-0.0000000296\H
 ,-1.1009584274,3.9669624285,0.8842200255\H,-1.1009587044,3.9669622526,
 -0.8842203025\H,-2.5448902316,3.456475083,0.0000001385\C,-0.9390182266
 ,1.9773415081,0.000000034\H,-1.2872803293,1.4308462504,-0.8842200211\H
 ,0.156651475,1.9413335959,-0.000000134\H,-1.2872800522,1.4308464263,0.
 884220307\\Version=EM64L-G09RevD.01\State=1-A1G\HF=-79.8304174\RMSD=1.
 480e-10\RMSF=3.310e-05\ZeroPoint=0.075229\Thermal=0.0786977\Dipole=0.,
 0.,0.\DipoleDeriv=0.1142478,0.010648,-0.0000071,0.0106264,0.0879499,-0
 .0000056,-0.0000196,0.0000297,0.1180019,0.0334099,-0.0263181,-0.063054
 9,-0.0133764,-0.0497864,-0.086796,-0.0555833,-0.1079298,-0.0903603,0.0
 334086,-0.0263167,0.0630546,-0.0133863,-0.0497836,0.0868017,0.055589,0
 .1079174,-0.0903591,-0.1810661,0.0420003,0.0000039,0.016139,0.0116148,
 -0.0000028,0.000004,-0.0000025,0.0627173,0.1142479,0.010648,-0.0000071
 ,0.0106264,0.0879499,-0.0000056,-0.0000196,0.0000297,0.1180019,0.03340
 99,-0.0263181,-0.0630549,-0.0133764,-0.0497864,-0.086796,-0.0555833,-0
 .1079298,-0.0903603,-0.1810661,0.0420003,0.0000039,0.016139,0.0116148,
 -0.0000028,0.000004,-0.0000025,0.0627173,0.0334086,-0.0263167,0.063054
 6,-0.0133863,-0.0497836,0.0868017,0.055589,0.1079174,-0.0903591\Polar=
 22.5879266,-0.4780209,23.7709495,-0.0001272,-0.0000896,22.4187457\PG=D
 03D [C3(C1.C1),3SGD(H2)]\NImag=0\\0.56458010,0.02924368,0.49220318,0.0
 0000052,0.00000081,0.57491991,-0.07820404,-0.04214151,-0.06895124,0.07
 967155,-0.04182026,-0.11047671,-0.10269999,0.04396450,0.12148196,-0.06
 876578,-0.10322460,-0.22276821,0.07635593,0.11395371,0.23893477,-0.078
 20436,-0.04214122,0.06895093,0.00353162,0.00671244,-0.00963967,0.07967
 150,-0.04181968,-0.11047610,0.10269858,0.00671244,0.00888425,-0.013214
 22,0.04396445,0.12148192,0.06876529,0.10322414,-0.22276829,0.00963966,
 0.01321421,-0.02135573,-0.07635589,-0.11395371,0.23893487,-0.31168615,
 0.00417795,-0.00000019,-0.00976116,-0.00033483,0.00014415,-0.00976116,
 -0.00033483,-0.00014414,0.33823922,0.00353448,-0.04888296,-0.00000005,
 -0.01634837,-0.00009868,0.00148865,-0.01634837,-0.00009868,-0.00148864
 ,-0.00662540,0.05339241,-0.00000042,0.00000011,-0.05087963,-0.02838029
 ,0.00121034,0.00091999,0.02838030,-0.00121033,0.00091998,-0.00000004,0
 .,0.04845666,-0.09513361,0.03797134,0.00000170,0.00401883,-0.01090712,
 0.00111938,0.00401911,-0.01090712,-0.00111965,-0.00939212,0.03470529,0
 .00000006,0.56458010,0.03797134,-0.18910823,0.00000310,0.00618744,-0.0
 1635273,0.00096496,0.00618737,-0.01635217,-0.00096610,0.00051555,-0.00
 055531,-0.00000048,0.02924368,0.49220318,0.00000170,0.00000310,-0.0817
 0570,0.01098859,-0.02695045,0.00186231,-0.01098893,0.02695010,0.001862
 75,-0.00000026,-0.00000015,-0.00052288,0.00000052,0.00000081,0.5749199
 1,0.00401883,0.00618744,0.01098859,0.00003456,0.00293785,0.00009701,0.
 00015678,-0.00073275,-0.00024397,0.00055254,-0.00057976,0.00049387,-0.
 07820404,-0.04214151,-0.06895124,0.07967155,-0.01090712,-0.01635273,-0
 .02695045,0.00293785,-0.00603921,0.00072559,-0.00073275,0.00113680,0.0
 0037895,0.00017992,0.00146409,0.00016660,-0.04182026,-0.11047671,-0.10
 269999,0.04396450,0.12148196,0.00111938,0.00096496,0.00186231,0.000097
 01,0.00072559,0.00159112,0.00024397,-0.00037895,0.00076918,0.00044451,
 -0.00031606,0.00004613,-0.06876578,-0.10322460,-0.22276821,0.07635593,
 0.11395371,0.23893477,-0.00939212,0.00051555,-0.00000026,0.00055254,0.
 00017992,0.00044451,0.00055254,0.00017992,-0.00044452,0.00125727,0.002
 24124,0.,-0.31168615,0.00417795,-0.00000019,-0.00976116,-0.00033483,0.
 00014415,0.33823922,0.03470529,-0.00055531,-0.00000015,-0.00057976,0.0
 0146409,-0.00031606,-0.00057976,0.00146409,0.00031606,0.00224124,-0.00
 668460,0.,0.00353448,-0.04888296,-0.00000005,-0.01634837,-0.00009868,0
 .00148865,-0.00662540,0.05339241,0.00000006,-0.00000048,-0.00052288,0.
 00049387,0.00016660,0.00004613,-0.00049387,-0.00016660,0.00004613,0.,0
 .,0.00101380,-0.00000042,0.00000011,-0.05087963,-0.02838029,0.00121034
 ,0.00091999,-0.00000004,0.,0.04845666,0.00401911,0.00618737,-0.0109889
 3,0.00015678,-0.00073275,0.00024397,0.00003456,0.00293785,-0.00009701,
 0.00055254,-0.00057976,-0.00049387,-0.07820436,-0.04214122,0.06895093,
 0.00353162,0.00671244,-0.00963967,-0.00976116,-0.01634837,0.02838030,0
 .07967150,-0.01090712,-0.01635217,0.02695010,-0.00073275,0.00113680,-0
 .00037895,0.00293785,-0.00603921,-0.00072559,0.00017992,0.00146409,-0.
 00016660,-0.04181968,-0.11047610,0.10269858,0.00671244,0.00888425,-0.0
 1321422,-0.00033483,-0.00009868,-0.00121033,0.04396445,0.12148192,-0.0
 0111965,-0.00096610,0.00186275,-0.00024397,0.00037895,0.00076918,-0.00
 009701,-0.00072559,0.00159112,-0.00044452,0.00031606,0.00004613,0.0687
 6529,0.10322414,-0.22276829,0.00963966,0.01321421,-0.02135573,-0.00014
 414,-0.00148864,0.00091998,-0.07635589,-0.11395371,0.23893487\\0.00000
 548,-0.00001549,0.,0.00001734,0.00003817,0.00005036,0.00001734,0.00003
 817,-0.00005036,-0.00006489,0.00000910,0.,-0.00000548,0.00001549,0.,-0
 .00001734,-0.00003817,-0.00005036,0.00006489,-0.00000910,0.,-0.0000173
 4,-0.00003817,0.00005036\\\@


 The number of Unix installations has grown to 10,
  with more expected.
                  -- The Unix Programmer's Manual,
                     2nd Edition, June, 1972.
 FChkPn:  Coordinates translated and rotated.
 FChkPn:  Coordinates match /B/ after translation and rotation.
 Job cpu time:       0 days  0 hours  0 minutes 17.7 seconds.
 File lengths (MBytes):  RWF=      5 Int=      0 D2E=      0 Chk=      1 Scr=      1
 Normal termination of Gaussian 09 at Wed Nov 30 16:29:20 2016.
