CuL3-BH3_p0                                                             
Freq      UPBE1PBE                                                    def2TZVP            
Number of atoms                            I               17
Info1-9                                    I   N=           9
          29          27        1001           0           0         100
           6          18        -302
Full Title                                 C   N=           1
CuL3-BH3_p0 
Route                                      C   N=           6
#P Geom=AllCheck Guess=TCheck SCRF=Check GenChk UPBE1PBE/def
2TZVP Freq  
Charge                                     I                0
Multiplicity                               I                2
Number of electrons                        I               91
Number of alpha electrons                  I               46
Number of beta electrons                   I               45
Number of basis functions                  I              259
Number of independent functions            I              259
Number of point charges in /Mol/           I                0
Number of translation vectors              I                0
Atomic numbers                             I   N=          17
          29          15           1           1           1          15
           1           1           1          15           1           1
           1           5           1           1           1
Nuclear charges                            R   N=          17
  2.90000000E+01  1.50000000E+01  1.00000000E+00  1.00000000E+00  1.00000000E+00
  1.50000000E+01  1.00000000E+00  1.00000000E+00  1.00000000E+00  1.50000000E+01
  1.00000000E+00  1.00000000E+00  1.00000000E+00  5.00000000E+00  1.00000000E+00
  1.00000000E+00  1.00000000E+00
Current cartesian coordinates              R   N=          51
  0.00000000E+00  0.00000000E+00 -3.45042674E-01  3.68398376E+00  2.12694901E+00
 -4.77650358E-01  5.30729064E+00  2.76239275E+00 -2.52172467E+00  5.56974829E+00
  1.10067172E+00  1.10121518E+00  3.60460440E+00  4.55822399E+00  6.09569383E-01
 -6.66133815E-16 -4.25389803E+00 -4.77650358E-01 -1.83166448E+00 -5.37387937E+00
  1.10121518E+00  2.14523557E+00 -5.40079098E+00  6.09569383E-01 -2.61343022E-01
 -5.97744489E+00 -2.52172467E+00 -3.68398376E+00  2.12694901E+00 -4.77650358E-01
 -5.74983997E+00  8.42566990E-01  6.09569383E-01 -5.04594761E+00  3.21505214E+00
 -2.52172467E+00 -3.73808382E+00  4.27320765E+00  1.10121518E+00  0.00000000E+00
  0.00000000E+00  4.11086615E+00  9.87166363E-01  2.03304621E+00  4.45966442E+00
  1.26708648E+00 -1.87143425E+00  4.45966442E+00 -2.25425285E+00 -1.61611957E-01
  4.45966442E+00
Number of symbols in /Mol/                 I                0
Redundant internal dimensions              I   N=           4
          82          16          30          36
Redundant internal coordinate indices      I   N=         328
           1           2           0           0           1           6
           0           0           1          10           0           0
           1          14           0           0           2           3
           0           0           2           4           0           0
           2           5           0           0           6           7
           0           0           6           8           0           0
           6           9           0           0          10          11
           0           0          10          12           0           0
          10          13           0           0          14          15
           0           0          14          16           0           0
          14          17           0           0           2           1
           6           0           2           1          10           0
           2           1          14           0           6           1
          10           0           6           1          14           0
          10           1          14           0           1           2
           3           0           1           2           4           0
           1           2           5           0           3           2
           4           0           3           2           5           0
           4           2           5           0           1           6
           7           0           1           6           8           0
           1           6           9           0           7           6
           8           0           7           6           9           0
           8           6           9           0           1          10
          11           0           1          10          12           0
           1          10          13           0          11          10
          12           0          11          10          13           0
          12          10          13           0           1          14
          15           0           1          14          16           0
           1          14          17           0          15          14
          16           0          15          14          17           0
          16          14          17           0           6           1
           2           3           6           1           2           4
           6           1           2           5          10           1
           2           3          10           1           2           4
          10           1           2           5          14           1
           2           3          14           1           2           4
          14           1           2           5           2           1
           6           7           2           1           6           8
           2           1           6           9          10           1
           6           7          10           1           6           8
          10           1           6           9          14           1
           6           7          14           1           6           8
          14           1           6           9           2           1
          10          11           2           1          10          12
           2           1          10          13           6           1
          10          11           6           1          10          12
           6           1          10          13          14           1
          10          11          14           1          10          12
          14           1          10          13           2           1
          14          15           2           1          14          16
           2           1          14          17           6           1
          14          15           6           1          14          16
           6           1          14          17          10           1
          14          15          10           1          14          16
          10           1          14          17
Redundant internal coordinates             R   N=          82
  4.25596443E+00  4.25596443E+00  4.25596443E+00  4.45590882E+00  2.68647609E+00
  2.66498956E+00  2.66447853E+00  2.66498956E+00  2.66447853E+00  2.68647609E+00
  2.66447853E+00  2.68647609E+00  2.66498956E+00  2.28679570E+00  2.28679570E+00
  2.28679570E+00  2.09271440E+00  2.09271440E+00  1.60195945E+00  2.09271440E+00
  1.60195945E+00  1.60195945E+00  2.29823675E+00  1.98405275E+00  2.00150543E+00
  1.68534141E+00  1.68367489E+00  1.70190027E+00  1.98405275E+00  2.00150543E+00
  2.29823675E+00  1.70190027E+00  1.68534141E+00  1.68367489E+00  2.00150543E+00
  2.29823675E+00  1.98405275E+00  1.68367489E+00  1.70190027E+00  1.68534141E+00
  1.72392110E+00  1.72392110E+00  1.72392110E+00  2.05454755E+00  2.05454755E+00
  2.05454755E+00  1.38626012E+00 -7.75917712E-01 -2.71345836E+00 -1.64750238E+00
  2.47350510E+00  5.35964452E-01  3.01097152E+00  8.48793692E-01 -1.08874695E+00
  2.47350510E+00  5.35964452E-01 -1.64750238E+00 -7.75917712E-01 -2.71345836E+00
  1.38626012E+00  8.48793692E-01 -1.08874695E+00  3.01097152E+00 -2.71345836E+00
  1.38626012E+00 -7.75917712E-01  5.35964452E-01 -1.64750238E+00  2.47350510E+00
 -1.08874695E+00  3.01097152E+00  8.48793692E-01  5.95168354E-01 -1.49922675E+00
  2.68956346E+00  2.68956346E+00  5.95168354E-01 -1.49922675E+00 -1.49922675E+00
  2.68956346E+00  5.95168354E-01
ZRed-IntVec                                I   N=          82
           0           0           0           0           0           0
           0           0           0           0           0           0
           0           0           0           0           0           0
           0           0           0           0           0           0
           0           0           0           0           0           0
           0           0           0           0           0           0
           0           0           0           0           0           0
           0           0           0           0           0           0
           0           0           0           0           0           0
           0           0           0           0           0           0
           0           0           0           0           0           0
           0           0           0           0           0           0
           0           0           0           0           0           0
           0           0           0           0
ZRed-FPVec                                 R   N=          82
  0.00000000E+00  0.00000000E+00  0.00000000E+00  0.00000000E+00  0.00000000E+00
  0.00000000E+00  0.00000000E+00  0.00000000E+00  0.00000000E+00  0.00000000E+00
  0.00000000E+00  0.00000000E+00  0.00000000E+00  0.00000000E+00  0.00000000E+00
  0.00000000E+00  0.00000000E+00  0.00000000E+00  0.00000000E+00  0.00000000E+00
  0.00000000E+00  0.00000000E+00  0.00000000E+00  0.00000000E+00  0.00000000E+00
  0.00000000E+00  0.00000000E+00  0.00000000E+00  0.00000000E+00  0.00000000E+00
  0.00000000E+00  0.00000000E+00  0.00000000E+00  0.00000000E+00  0.00000000E+00
  0.00000000E+00  0.00000000E+00  0.00000000E+00  0.00000000E+00  0.00000000E+00
  0.00000000E+00  0.00000000E+00  0.00000000E+00  0.00000000E+00  0.00000000E+00
  0.00000000E+00  0.00000000E+00  0.00000000E+00  0.00000000E+00  0.00000000E+00
  0.00000000E+00  0.00000000E+00  0.00000000E+00  0.00000000E+00  0.00000000E+00
  0.00000000E+00  0.00000000E+00  0.00000000E+00  0.00000000E+00  0.00000000E+00
  0.00000000E+00  0.00000000E+00  0.00000000E+00  0.00000000E+00  0.00000000E+00
  0.00000000E+00  0.00000000E+00  0.00000000E+00  0.00000000E+00  0.00000000E+00
  0.00000000E+00  0.00000000E+00  0.00000000E+00  0.00000000E+00  0.00000000E+00
  0.00000000E+00  0.00000000E+00  0.00000000E+00  0.00000000E+00  0.00000000E+00
  0.00000000E+00  0.00000000E+00
ZRed-Constraint1                           R   N=          82
  4.25596443E+00  4.25596443E+00  4.25596443E+00  4.45590882E+00  2.68647609E+00
  2.66498956E+00  2.66447853E+00  2.66498956E+00  2.66447853E+00  2.68647609E+00
  2.66447853E+00  2.68647609E+00  2.66498956E+00  2.28679570E+00  2.28679570E+00
  2.28679570E+00  2.09271440E+00  2.09271440E+00  1.60195945E+00  2.09271440E+00
  1.60195945E+00  1.60195945E+00  2.29823675E+00  1.98405275E+00  2.00150543E+00
  1.68534141E+00  1.68367489E+00  1.70190027E+00  1.98405275E+00  2.00150543E+00
  2.29823675E+00  1.70190027E+00  1.68534141E+00  1.68367489E+00  2.00150543E+00
  2.29823675E+00  1.98405275E+00  1.68367489E+00  1.70190027E+00  1.68534141E+00
  1.72392110E+00  1.72392110E+00  1.72392110E+00  2.05454755E+00  2.05454755E+00
  2.05454755E+00  1.38626012E+00 -7.75917712E-01 -2.71345836E+00 -1.64750238E+00
  2.47350510E+00  5.35964452E-01  3.01097152E+00  8.48793692E-01 -1.08874695E+00
  2.47350510E+00  5.35964452E-01 -1.64750238E+00 -7.75917712E-01 -2.71345836E+00
  1.38626012E+00  8.48793692E-01 -1.08874695E+00  3.01097152E+00 -2.71345836E+00
  1.38626012E+00 -7.75917712E-01  5.35964452E-01 -1.64750238E+00  2.47350510E+00
 -1.08874695E+00  3.01097152E+00  8.48793692E-01  5.95168354E-01 -1.49922675E+00
  2.68956346E+00  2.68956346E+00  5.95168354E-01 -1.49922675E+00 -1.49922675E+00
  2.68956346E+00  5.95168354E-01
ZRed-Constraint2                           R   N=          82
  4.19519168E+00  4.19519168E+00  4.19519168E+00  3.66606870E+00  2.55113028E+00
  2.55113027E+00  2.55113028E+00  2.55113027E+00  2.55113029E+00  2.55113027E+00
  2.55113028E+00  2.55113028E+00  2.55113028E+00  2.02200558E+00  2.02200559E+00
  2.02200559E+00  1.91063371E+00  1.91063370E+00  1.91063277E+00  1.91063370E+00
  1.91063277E+00  1.91063277E+00  1.91063291E+00  1.91063295E+00  1.91063341E+00
  1.91063377E+00  1.91063319E+00  1.91063320E+00  1.91063295E+00  1.91063341E+00
  1.91063291E+00  1.91063319E+00  1.91063377E+00  1.91063319E+00  1.91063341E+00
  1.91063291E+00  1.91063295E+00  1.91063319E+00  1.91063320E+00  1.91063376E+00
  1.91063351E+00  1.91063351E+00  1.91063351E+00  1.91063296E+00  1.91063296E+00
  1.91063297E+00  5.23599618E-01 -1.57079575E+00  2.61799457E+00 -1.57079663E+00
  2.61799330E+00  5.23598322E-01  2.61799415E+00  5.23598776E-01 -1.57079621E+00
  2.61799330E+00  5.23598322E-01 -1.57079663E+00 -1.57079576E+00  2.61799457E+00
  5.23599621E-01  5.23598773E-01 -1.57079621E+00  2.61799415E+00  2.61799457E+00
  5.23599621E-01 -1.57079575E+00  5.23598322E-01 -1.57079663E+00  2.61799330E+00
 -1.57079621E+00  2.61799415E+00  5.23598777E-01  5.23598776E-01 -1.57079633E+00
  2.61799387E+00  2.61799388E+00  5.23598777E-01 -1.57079633E+00 -1.57079633E+00
  2.61799388E+00  5.23598772E-01
Force Field                                I                0
Atom Types                                 C   N=          17
                                                            
                                                            
                                                            
                        
Int Atom Types                             I   N=          17
           0           0           0           0           0           0
           0           0           0           0           0           0
           0           0           0           0           0
MM charges                                 R   N=          17
  0.00000000E+00  0.00000000E+00  0.00000000E+00  0.00000000E+00  0.00000000E+00
  0.00000000E+00  0.00000000E+00  0.00000000E+00  0.00000000E+00  0.00000000E+00
  0.00000000E+00  0.00000000E+00  0.00000000E+00  0.00000000E+00  0.00000000E+00
  0.00000000E+00  0.00000000E+00
Integer atomic weights                     I   N=          17
          63          31           1           1           1          31
           1           1           1          31           1           1
           1          11           1           1           1
Real atomic weights                        R   N=          17
  6.29295992E+01  3.09737634E+01  1.00782504E+00  1.00782504E+00  1.00782504E+00
  3.09737634E+01  1.00782504E+00  1.00782504E+00  1.00782504E+00  3.09737634E+01
  1.00782504E+00  1.00782504E+00  1.00782504E+00  1.10093053E+01  1.00782504E+00
  1.00782504E+00  1.00782504E+00
Atom fragment info                         I   N=          17
           0           0           0           0           0           0
           0           0           0           0           0           0
           0           0           0           0           0
Atom residue num                           I   N=          17
           0           0           0           0           0           0
           0           0           0           0           0           0
           0           0           0           0           0
Nuclear spins                              I   N=          17
           3           1           1           1           1           1
           1           1           1           1           1           1
           1           3           1           1           1
Nuclear ZEff                               R   N=          17
 -2.55200000E+01 -1.29400000E+01 -1.00000000E+00 -1.00000000E+00 -1.00000000E+00
 -1.29400000E+01 -1.00000000E+00 -1.00000000E+00 -1.00000000E+00 -1.29400000E+01
 -1.00000000E+00 -1.00000000E+00 -1.00000000E+00 -2.75000000E+00 -1.00000000E+00
 -1.00000000E+00 -1.00000000E+00
Nuclear ZNuc                               R   N=          17
  2.90000000E+01  1.50000000E+01  1.00000000E+00  1.00000000E+00  1.00000000E+00
  1.50000000E+01  1.00000000E+00  1.00000000E+00  1.00000000E+00  1.50000000E+01
  1.00000000E+00  1.00000000E+00  1.00000000E+00  5.00000000E+00  1.00000000E+00
  1.00000000E+00  1.00000000E+00
Nuclear QMom                               R   N=          17
 -2.20000000E+01  0.00000000E+00  0.00000000E+00  0.00000000E+00  0.00000000E+00
  0.00000000E+00  0.00000000E+00  0.00000000E+00  0.00000000E+00  0.00000000E+00
  0.00000000E+00  0.00000000E+00  0.00000000E+00  4.05900000E+00  0.00000000E+00
  0.00000000E+00  0.00000000E+00
Nuclear GFac                               R   N=          17
  2.22330000E+00  1.13160000E+00  2.79284600E+00  2.79284600E+00  2.79284600E+00
  1.13160000E+00  2.79284600E+00  2.79284600E+00  2.79284600E+00  1.13160000E+00
  2.79284600E+00  2.79284600E+00  2.79284600E+00  2.68863700E+00  2.79284600E+00
  2.79284600E+00  2.79284600E+00
MicOpt                                     I   N=          17
          -1          -1          -1          -1          -1          -1
          -1          -1          -1          -1          -1          -1
          -1          -1          -1          -1          -1
Number of residues                         I                0
Number of secondary structures             I                0
Number of contracted shells                I              113
Number of primitive shells                 I              209
Pure/Cartesian d shells                    I                0
Pure/Cartesian f shells                    I                0
Highest angular momentum                   I                3
Largest degree of contraction              I                8
Shell types                                I   N=         113
           0           0           0           0           0           0
           1           1           1           1          -2          -2
          -2          -2          -3           0           0           0
           0           0           1           1           1           1
           1          -2          -2          -3           0           0
           0           1           0           0           0           1
           0           0           0           1           0           0
           0           0           0           1           1           1
           1           1          -2          -2          -3           0
           0           0           1           0           0           0
           1           0           0           0           1           0
           0           0           0           0           1           1
           1           1           1          -2          -2          -3
           0           0           0           1           0           0
           0           1           0           0           0           1
           0           0           0           0           0           1
           1           1          -2          -2          -3           0
           0           0           1           0           0           0
           1           0           0           0           1
Number of primitives per shell             I   N=         113
           8           4           2           1           1           1
           6           3           1           1           4           1
           1           1           1           7           3           2
           1           1           5           1           1           1
           1           2           1           1           3           1
           1           1           3           1           1           1
           3           1           1           1           7           3
           2           1           1           5           1           1
           1           1           2           1           1           3
           1           1           1           3           1           1
           1           3           1           1           1           7
           3           2           1           1           5           1
           1           1           1           2           1           1
           3           1           1           1           3           1
           1           1           3           1           1           1
           6           2           1           1           1           4
           1           1           1           1           1           3
           1           1           1           3           1           1
           1           3           1           1           1
Shell to atom map                          I   N=         113
           1           1           1           1           1           1
           1           1           1           1           1           1
           1           1           1           2           2           2
           2           2           2           2           2           2
           2           2           2           2           3           3
           3           3           4           4           4           4
           5           5           5           5           6           6
           6           6           6           6           6           6
           6           6           6           6           6           7
           7           7           7           8           8           8
           8           9           9           9           9          10
          10          10          10          10          10          10
          10          10          10          10          10          10
          11          11          11          11          12          12
          12          12          13          13          13          13
          14          14          14          14          14          14
          14          14          14          14          14          15
          15          15          15          16          16          16
          16          17          17          17          17
Primitive exponents                        R   N=         209
  3.77518799E+05  5.65899843E+04  1.28787117E+04  3.64537521E+03  1.18700729E+03
  4.26464219E+02  1.65706602E+02  6.55989427E+01  4.14412658E+02  1.28320560E+02
  2.06220898E+01  8.78212260E+00  1.37413720E+01  2.24312468E+00  8.93705491E-01
  1.08366995E-01  3.88061781E-02  2.03475967E+03  4.81904681E+02  1.54674830E+02
  5.77405770E+01  2.30990528E+01  9.38824786E+00  3.75961712E+01  5.12406908E+00
  2.01199961E+00  7.38606860E-01  1.55065000E-01  7.41294606E+01  2.13598426E+01
  7.49952405E+00  2.76013942E+00  9.53620612E-01  2.84208625E-01  8.50000000E-02
  2.23300000E+00  5.24269992E+04  7.86326606E+03  1.78952273E+03  5.06273002E+02
  1.64606985E+02  5.83919187E+01  2.16436632E+01  9.90138376E+01  3.05504398E+01
  5.45370877E+00  2.65033626E+00  1.27266889E+00  3.16450052E-01  1.14174669E-01
  4.72272192E+02  1.11588828E+02  3.54459364E+01  1.29907769E+01  5.04862217E+00
  1.99340496E+00  6.65272844E-01  2.55168321E-01  9.03577623E-02  3.12000000E+00
  6.48000000E-01  2.18000000E-01  4.52000000E-01  3.40613410E+01  5.12357460E+00
  1.16466260E+00  3.27230410E-01  1.03072410E-01  8.00000000E-01  3.40613410E+01
  5.12357460E+00  1.16466260E+00  3.27230410E-01  1.03072410E-01  8.00000000E-01
  3.40613410E+01  5.12357460E+00  1.16466260E+00  3.27230410E-01  1.03072410E-01
  8.00000000E-01  5.24269992E+04  7.86326606E+03  1.78952273E+03  5.06273002E+02
  1.64606985E+02  5.83919187E+01  2.16436632E+01  9.90138376E+01  3.05504398E+01
  5.45370877E+00  2.65033626E+00  1.27266889E+00  3.16450052E-01  1.14174669E-01
  4.72272192E+02  1.11588828E+02  3.54459364E+01  1.29907769E+01  5.04862217E+00
  1.99340496E+00  6.65272844E-01  2.55168321E-01  9.03577623E-02  3.12000000E+00
  6.48000000E-01  2.18000000E-01  4.52000000E-01  3.40613410E+01  5.12357460E+00
  1.16466260E+00  3.27230410E-01  1.03072410E-01  8.00000000E-01  3.40613410E+01
  5.12357460E+00  1.16466260E+00  3.27230410E-01  1.03072410E-01  8.00000000E-01
  3.40613410E+01  5.12357460E+00  1.16466260E+00  3.27230410E-01  1.03072410E-01
  8.00000000E-01  5.24269992E+04  7.86326606E+03  1.78952273E+03  5.06273002E+02
  1.64606985E+02  5.83919187E+01  2.16436632E+01  9.90138376E+01  3.05504398E+01
  5.45370877E+00  2.65033626E+00  1.27266889E+00  3.16450052E-01  1.14174669E-01
  4.72272192E+02  1.11588828E+02  3.54459364E+01  1.29907769E+01  5.04862217E+00
  1.99340496E+00  6.65272844E-01  2.55168321E-01  9.03577623E-02  3.12000000E+00
  6.48000000E-01  2.18000000E-01  4.52000000E-01  3.40613410E+01  5.12357460E+00
  1.16466260E+00  3.27230410E-01  1.03072410E-01  8.00000000E-01  3.40613410E+01
  5.12357460E+00  1.16466260E+00  3.27230410E-01  1.03072410E-01  8.00000000E-01
  3.40613410E+01  5.12357460E+00  1.16466260E+00  3.27230410E-01  1.03072410E-01
  8.00000000E-01  8.56486607E+03  1.28415163E+03  2.92278716E+02  8.27754692E+01
  2.70179393E+01  9.81496197E+00  3.93185591E+00  1.65955997E+00  3.57629652E-01
  1.42462775E-01  6.05605948E-02  2.24538758E+01  5.10450583E+00  1.49860813E+00
  5.09278313E-01  1.81470778E-01  6.46218939E-02  6.61000000E-01  1.99000000E-01
  4.90000000E-01  3.40613410E+01  5.12357460E+00  1.16466260E+00  3.27230410E-01
  1.03072410E-01  8.00000000E-01  3.40613410E+01  5.12357460E+00  1.16466260E+00
  3.27230410E-01  1.03072410E-01  8.00000000E-01  3.40613410E+01  5.12357460E+00
  1.16466260E+00  3.27230410E-01  1.03072410E-01  8.00000000E-01
Contraction coefficients                   R   N=         209
  2.38791530E-04  1.85156780E-03  9.62979325E-03  3.91615179E-02  1.27602509E-01
  3.03400884E-01  4.34751928E-01  2.29307950E-01 -2.49866525E-02 -1.18611971E-01
  5.59827148E-01  5.28864308E-01 -3.69932783E-01  1.16760874E+00  1.00000000E+00
  1.00000000E+00  1.00000000E+00  2.67761866E-03  2.17785896E-02  1.02633648E-01
  2.96654898E-01  4.79112240E-01  2.77092830E-01 -2.07301506E-02  3.92700205E-01
  6.70671423E-01  1.00000000E+00  1.00000000E+00  2.22258533E-02  1.34049719E-01
  3.96624536E-01  6.24754195E-01  1.00000000E+00  1.00000000E+00  1.00000000E+00
  1.00000000E+00  5.35079475E-04  4.13649945E-03  2.12565005E-02  8.30304260E-02
  2.40761172E-01  4.49105590E-01  3.42625064E-01  8.82042670E-02  3.85317087E-01
 -1.18653192E+00  6.82257562E-01  3.39268410E-01  1.00000000E+00  1.00000000E+00
  3.64400072E-03  2.87010161E-02  1.29798565E-01  3.64950429E-01  6.07501566E-01
  1.00000000E+00  1.00000000E+00  1.00000000E+00  1.00000000E+00  1.83387182E-01
  9.16935910E-01  1.00000000E+00  1.00000000E+00  2.54393072E-02  1.90085949E-01
  8.52441130E-01  1.00000000E+00  1.00000000E+00  1.00000000E+00  2.54393072E-02
  1.90085949E-01  8.52441130E-01  1.00000000E+00  1.00000000E+00  1.00000000E+00
  2.54393072E-02  1.90085949E-01  8.52441130E-01  1.00000000E+00  1.00000000E+00
  1.00000000E+00  5.35079475E-04  4.13649945E-03  2.12565005E-02  8.30304260E-02
  2.40761172E-01  4.49105590E-01  3.42625064E-01  8.82042670E-02  3.85317087E-01
 -1.18653192E+00  6.82257562E-01  3.39268410E-01  1.00000000E+00  1.00000000E+00
  3.64400072E-03  2.87010161E-02  1.29798565E-01  3.64950429E-01  6.07501566E-01
  1.00000000E+00  1.00000000E+00  1.00000000E+00  1.00000000E+00  1.83387182E-01
  9.16935910E-01  1.00000000E+00  1.00000000E+00  2.54393072E-02  1.90085949E-01
  8.52441130E-01  1.00000000E+00  1.00000000E+00  1.00000000E+00  2.54393072E-02
  1.90085949E-01  8.52441130E-01  1.00000000E+00  1.00000000E+00  1.00000000E+00
  2.54393072E-02  1.90085949E-01  8.52441130E-01  1.00000000E+00  1.00000000E+00
  1.00000000E+00  5.35079475E-04  4.13649945E-03  2.12565005E-02  8.30304260E-02
  2.40761172E-01  4.49105590E-01  3.42625064E-01  8.82042670E-02  3.85317087E-01
 -1.18653192E+00  6.82257562E-01  3.39268410E-01  1.00000000E+00  1.00000000E+00
  3.64400072E-03  2.87010161E-02  1.29798565E-01  3.64950429E-01  6.07501566E-01
  1.00000000E+00  1.00000000E+00  1.00000000E+00  1.00000000E+00  1.83387182E-01
  9.16935910E-01  1.00000000E+00  1.00000000E+00  2.54393072E-02  1.90085949E-01
  8.52441130E-01  1.00000000E+00  1.00000000E+00  1.00000000E+00  2.54393072E-02
  1.90085949E-01  8.52441130E-01  1.00000000E+00  1.00000000E+00  1.00000000E+00
  2.54393072E-02  1.90085949E-01  8.52441130E-01  1.00000000E+00  1.00000000E+00
  1.00000000E+00  6.37546301E-04  4.93644673E-03  2.55181243E-02  1.01457783E-01
  3.08858686E-01  6.52346397E-01  6.71527795E-01  3.58503451E-01  1.00000000E+00
  1.00000000E+00  1.00000000E+00  1.11890364E-02  7.30161447E-02  2.92744287E-01
  7.38963628E-01  1.00000000E+00  1.00000000E+00  1.00000000E+00  1.00000000E+00
  1.00000000E+00  2.54393072E-02  1.90085949E-01  8.52441130E-01  1.00000000E+00
  1.00000000E+00  1.00000000E+00  2.54393072E-02  1.90085949E-01  8.52441130E-01
  1.00000000E+00  1.00000000E+00  1.00000000E+00  2.54393072E-02  1.90085949E-01
  8.52441130E-01  1.00000000E+00  1.00000000E+00  1.00000000E+00
Coordinates of each shell                  R   N=         339
  0.00000000E+00  0.00000000E+00 -3.45042674E-01  0.00000000E+00  0.00000000E+00
 -3.45042674E-01  0.00000000E+00  0.00000000E+00 -3.45042674E-01  0.00000000E+00
  0.00000000E+00 -3.45042674E-01  0.00000000E+00  0.00000000E+00 -3.45042674E-01
  0.00000000E+00  0.00000000E+00 -3.45042674E-01  0.00000000E+00  0.00000000E+00
 -3.45042674E-01  0.00000000E+00  0.00000000E+00 -3.45042674E-01  0.00000000E+00
  0.00000000E+00 -3.45042674E-01  0.00000000E+00  0.00000000E+00 -3.45042674E-01
  0.00000000E+00  0.00000000E+00 -3.45042674E-01  0.00000000E+00  0.00000000E+00
 -3.45042674E-01  0.00000000E+00  0.00000000E+00 -3.45042674E-01  0.00000000E+00
  0.00000000E+00 -3.45042674E-01  0.00000000E+00  0.00000000E+00 -3.45042674E-01