 Entering Gaussian System, Link 0=g09
 Input=CuL3-BH3_p0.gjf
 Output=CuL3-BH3_p0.log
 Initial command:
 /usr/local/g09/l1.exe "/tmp/jzhangbm/g09-scratch/155926/Gau-31238.inp" -scrdir="/tmp/jzhangbm/g09-scratch/155926/"
 Entering Link 1 = /usr/local/g09/l1.exe PID=     31239.
  
 Copyright (c) 1988,1990,1992,1993,1995,1998,2003,2009,2013,
            Gaussian, Inc.  All Rights Reserved.
  
 This is part of the Gaussian(R) 09 program.  It is based on
 the Gaussian(R) 03 system (copyright 2003, Gaussian, Inc.),
 the Gaussian(R) 98 system (copyright 1998, Gaussian, Inc.),
 the Gaussian(R) 94 system (copyright 1995, Gaussian, Inc.),
 the Gaussian 92(TM) system (copyright 1992, Gaussian, Inc.),
 the Gaussian 90(TM) system (copyright 1990, Gaussian, Inc.),
 the Gaussian 88(TM) system (copyright 1988, Gaussian, Inc.),
 the Gaussian 86(TM) system (copyright 1986, Carnegie Mellon
 University), and the Gaussian 82(TM) system (copyright 1983,
 Carnegie Mellon University). Gaussian is a federally registered
 trademark of Gaussian, Inc.
  
 This software contains proprietary and confidential information,
 including trade secrets, belonging to Gaussian, Inc.
  
 This software is provided under written license and may be
 used, copied, transmitted, or stored only in accord with that
 written license.
  
 The following legend is applicable only to US Government
 contracts under FAR:
  
                    RESTRICTED RIGHTS LEGEND
  
 Use, reproduction and disclosure by the US Government is
 subject to restrictions as set forth in subparagraphs (a)
 and (c) of the Commercial Computer Software - Restricted
 Rights clause in FAR 52.227-19.
  
 Gaussian, Inc.
 340 Quinnipiac St., Bldg. 40, Wallingford CT 06492
  
  
 ---------------------------------------------------------------
 Warning -- This program may not be used in any manner that
 competes with the business of Gaussian, Inc. or will provide
 assistance to any competitor of Gaussian, Inc.  The licensee
 of this program is prohibited from giving any competitor of
 Gaussian, Inc. access to this program.  By using this program,
 the user acknowledges that Gaussian, Inc. is engaged in the
 business of creating and licensing software in the field of
 computational chemistry and represents and warrants to the
 licensee that it is not a competitor of Gaussian, Inc. and that
 it will not use this program in any manner prohibited above.
 ---------------------------------------------------------------
  

 Cite this work as:
 Gaussian 09, Revision D.01,
 M. J. Frisch, G. W. Trucks, H. B. Schlegel, G. E. Scuseria, 
 M. A. Robb, J. R. Cheeseman, G. Scalmani, V. Barone, B. Mennucci, 
 G. A. Petersson, H. Nakatsuji, M. Caricato, X. Li, H. P. Hratchian, 
 A. F. Izmaylov, J. Bloino, G. Zheng, J. L. Sonnenberg, M. Hada, 
 M. Ehara, K. Toyota, R. Fukuda, J. Hasegawa, M. Ishida, T. Nakajima, 
 Y. Honda, O. Kitao, H. Nakai, T. Vreven, J. A. Montgomery, Jr., 
 J. E. Peralta, F. Ogliaro, M. Bearpark, J. J. Heyd, E. Brothers, 
 K. N. Kudin, V. N. Staroverov, T. Keith, R. Kobayashi, J. Normand, 
 K. Raghavachari, A. Rendell, J. C. Burant, S. S. Iyengar, J. Tomasi, 
 M. Cossi, N. Rega, J. M. Millam, M. Klene, J. E. Knox, J. B. Cross, 
 V. Bakken, C. Adamo, J. Jaramillo, R. Gomperts, R. E. Stratmann, 
 O. Yazyev, A. J. Austin, R. Cammi, C. Pomelli, J. W. Ochterski, 
 R. L. Martin, K. Morokuma, V. G. Zakrzewski, G. A. Voth, 
 P. Salvador, J. J. Dannenberg, S. Dapprich, A. D. Daniels, 
 O. Farkas, J. B. Foresman, J. V. Ortiz, J. Cioslowski, 
 and D. J. Fox, Gaussian, Inc., Wallingford CT, 2013.
 
 ******************************************
 Gaussian 09:  EM64L-G09RevD.01 24-Apr-2013
                 8-Jan-2020 
 ******************************************
 %chk=CuL3-BH3_p0.chk
 %mem=50GB
 %nprocs=24
 Will use up to   24 processors via shared memory.
 ----------------------------------------------------------------------
 #p opt=tight freq=noraman pbe1pbe/def2TZVP gfinput pop=nboread formche
 ck int=ultrafine
 ----------------------------------------------------------------------
 1/7=10,14=-1,18=20,19=15,26=4,38=1/1,3;
 2/9=110,12=2,17=6,18=5,40=1/2;
 3/5=44,7=101,11=2,16=1,24=10,25=1,30=1,71=1,74=-13,75=-5/1,2,3;
 4//1;
 5/5=2,38=5/2;
 6/7=2,8=2,9=2,10=2,28=1,40=2/1,7;
 7//1,2,3,16;
 1/7=10,14=-1,18=20,19=15,26=4/3(2);
 2/9=110/2;
 99//99;
 2/9=110/2;
 3/5=44,7=101,11=2,16=1,25=1,30=1,71=1,74=-13,75=-5/1,2,3;
 4/5=5,16=3,69=1/1;
 5/5=2,38=5/2;
 7//1,2,3,16;
 1/7=10,14=-1,18=20,19=15,26=4/3(-5);
 2/9=110/2;
 6/7=2,8=2,9=2,10=2,19=2,28=1,40=2/1,7;
 99/9=1/99;
 Leave Link    1 at Wed Jan  8 19:10:49 2020, MaxMem=  6710886400 cpu:         2.0
 (Enter /usr/local/g09/l101.exe)
 -----------
 CuL3-BH3_p0
 -----------
 Symbolic Z-matrix:
 Charge =  0 Multiplicity = 2
 Cu                    0.        0.       -0.24761 
 P                    -2.093    -0.01255   0.49239 
 H                    -2.14602  -0.64927   1.68162 
 H                    -2.88086  -0.65368  -0.39684 
 H                    -2.52488   1.25768   0.64239 
 P                     1.05736  -1.80632   0.49239 
 H                     2.00653  -2.16806  -0.39684 
 H                     0.17326  -2.81545   0.64239 
 H                     1.6353   -1.53388   1.68162 
 P                     1.03563   1.81886   0.49239 
 H                     2.35163   1.55777   0.64239 
 H                     0.51073   2.18315   1.68162 
 H                     0.87433   2.82173  -0.39684 
 B                     0.        0.       -2.18761 
 H                    -0.87666   0.49916  -2.54427 
 H                     0.00605  -1.00879  -2.54427 
 H                     0.87061   0.50963  -2.54427 
 
 NAtoms=     17 NQM=       17 NQMF=       0 NMMI=      0 NMMIF=      0
                NMic=       0 NMicF=      0.
                    Isotopes and Nuclear Properties:
 (Nuclear quadrupole moments (NQMom) in fm**2, nuclear magnetic moments (NMagM)
  in nuclear magnetons)

  Atom         1           2           3           4           5           6           7           8           9          10
 IAtWgt=          63          31           1           1           1          31           1           1           1          31
 AtmWgt=  62.9295992  30.9737634   1.0078250   1.0078250   1.0078250  30.9737634   1.0078250   1.0078250   1.0078250  30.9737634
 NucSpn=           3           1           1           1           1           1           1           1           1           1
 AtZEff=   0.0000000   0.0000000   0.0000000   0.0000000   0.0000000   0.0000000   0.0000000   0.0000000   0.0000000   0.0000000
 NQMom=  -22.0000000   0.0000000   0.0000000   0.0000000   0.0000000   0.0000000   0.0000000   0.0000000   0.0000000   0.0000000
 NMagM=    2.2233000   1.1316000   2.7928460   2.7928460   2.7928460   1.1316000   2.7928460   2.7928460   2.7928460   1.1316000
 AtZNuc=  29.0000000  15.0000000   1.0000000   1.0000000   1.0000000  15.0000000   1.0000000   1.0000000   1.0000000  15.0000000

  Atom        11          12          13          14          15          16          17
 IAtWgt=           1           1           1          11           1           1           1
 AtmWgt=   1.0078250   1.0078250   1.0078250  11.0093053   1.0078250   1.0078250   1.0078250
 NucSpn=           1           1           1           3           1           1           1
 AtZEff=   0.0000000   0.0000000   0.0000000   0.0000000   0.0000000   0.0000000   0.0000000
 NQMom=    0.0000000   0.0000000   0.0000000   4.0590000   0.0000000   0.0000000   0.0000000
 NMagM=    2.7928460   2.7928460   2.7928460   2.6886370   2.7928460   2.7928460   2.7928460
 AtZNuc=   1.0000000   1.0000000   1.0000000   5.0000000   1.0000000   1.0000000   1.0000000
 Leave Link  101 at Wed Jan  8 19:10:49 2020, MaxMem=  6710886400 cpu:         8.9
 (Enter /usr/local/g09/l103.exe)

 GradGradGradGradGradGradGradGradGradGradGradGradGradGradGradGradGradGrad
 Berny optimization.
 Initialization pass.
                           ----------------------------
                           !    Initial Parameters    !
                           ! (Angstroms and Degrees)  !
 --------------------------                            --------------------------
 ! Name  Definition              Value          Derivative Info.                !
 --------------------------------------------------------------------------------
 ! R1    R(1,2)                  2.22           estimate D2E/DX2                !
 ! R2    R(1,6)                  2.22           estimate D2E/DX2                !
 ! R3    R(1,10)                 2.22           estimate D2E/DX2                !
 ! R4    R(1,14)                 1.94           estimate D2E/DX2                !
 ! R5    R(2,3)                  1.35           estimate D2E/DX2                !
 ! R6    R(2,4)                  1.35           estimate D2E/DX2                !
 ! R7    R(2,5)                  1.35           estimate D2E/DX2                !
 ! R8    R(6,7)                  1.35           estimate D2E/DX2                !
 ! R9    R(6,8)                  1.35           estimate D2E/DX2                !
 ! R10   R(6,9)                  1.35           estimate D2E/DX2                !
 ! R11   R(10,11)                1.35           estimate D2E/DX2                !
 ! R12   R(10,12)                1.35           estimate D2E/DX2                !
 ! R13   R(10,13)                1.35           estimate D2E/DX2                !
 ! R14   R(14,15)                1.07           estimate D2E/DX2                !
 ! R15   R(14,16)                1.07           estimate D2E/DX2                !
 ! R16   R(14,17)                1.07           estimate D2E/DX2                !
 ! A1    A(2,1,6)              109.4712         estimate D2E/DX2                !
 ! A2    A(2,1,10)             109.4712         estimate D2E/DX2                !
 ! A3    A(2,1,14)             109.4712         estimate D2E/DX2                !
 ! A4    A(6,1,10)             109.4712         estimate D2E/DX2                !
 ! A5    A(6,1,14)             109.4712         estimate D2E/DX2                !
 ! A6    A(10,1,14)            109.4712         estimate D2E/DX2                !
 ! A7    A(1,2,3)              109.4712         estimate D2E/DX2                !
 ! A8    A(1,2,4)              109.4712         estimate D2E/DX2                !
 ! A9    A(1,2,5)              109.4712         estimate D2E/DX2                !
 ! A10   A(3,2,4)              109.4713         estimate D2E/DX2                !
 ! A11   A(3,2,5)              109.4712         estimate D2E/DX2                !
 ! A12   A(4,2,5)              109.4712         estimate D2E/DX2                !
 ! A13   A(1,6,7)              109.4712         estimate D2E/DX2                !
 ! A14   A(1,6,8)              109.4712         estimate D2E/DX2                !
 ! A15   A(1,6,9)              109.4712         estimate D2E/DX2                !
 ! A16   A(7,6,8)              109.4712         estimate D2E/DX2                !
 ! A17   A(7,6,9)              109.4713         estimate D2E/DX2                !
 ! A18   A(8,6,9)              109.4712         estimate D2E/DX2                !
 ! A19   A(1,10,11)            109.4712         estimate D2E/DX2                !
 ! A20   A(1,10,12)            109.4712         estimate D2E/DX2                !
 ! A21   A(1,10,13)            109.4712         estimate D2E/DX2                !
 ! A22   A(11,10,12)           109.4712         estimate D2E/DX2                !
 ! A23   A(11,10,13)           109.4712         estimate D2E/DX2                !
 ! A24   A(12,10,13)           109.4713         estimate D2E/DX2                !
 ! A25   A(1,14,15)            109.4712         estimate D2E/DX2                !
 ! A26   A(1,14,16)            109.4712         estimate D2E/DX2                !
 ! A27   A(1,14,17)            109.4712         estimate D2E/DX2                !
 ! A28   A(15,14,16)           109.4712         estimate D2E/DX2                !
 ! A29   A(15,14,17)           109.4712         estimate D2E/DX2                !
 ! A30   A(16,14,17)           109.4712         estimate D2E/DX2                !
 ! D1    D(6,1,2,3)             30.0            estimate D2E/DX2                !
 ! D2    D(6,1,2,4)            -90.0            estimate D2E/DX2                !
 ! D3    D(6,1,2,5)            150.0            estimate D2E/DX2                !
 ! D4    D(10,1,2,3)           -90.0            estimate D2E/DX2                !
 ! D5    D(10,1,2,4)           150.0            estimate D2E/DX2                !
 ! D6    D(10,1,2,5)            30.0            estimate D2E/DX2                !
 ! D7    D(14,1,2,3)           150.0            estimate D2E/DX2                !
 ! D8    D(14,1,2,4)            30.0            estimate D2E/DX2                !
 ! D9    D(14,1,2,5)           -90.0            estimate D2E/DX2                !
 ! D10   D(2,1,6,7)            150.0            estimate D2E/DX2                !
 ! D11   D(2,1,6,8)             30.0            estimate D2E/DX2                !
 ! D12   D(2,1,6,9)            -90.0            estimate D2E/DX2                !
 ! D13   D(10,1,6,7)           -90.0            estimate D2E/DX2                !
 ! D14   D(10,1,6,8)           150.0            estimate D2E/DX2                !
 ! D15   D(10,1,6,9)            30.0            estimate D2E/DX2                !
 ! D16   D(14,1,6,7)            30.0            estimate D2E/DX2                !
 ! D17   D(14,1,6,8)           -90.0            estimate D2E/DX2                !
 ! D18   D(14,1,6,9)           150.0            estimate D2E/DX2                !
 ! D19   D(2,1,10,11)          150.0            estimate D2E/DX2                !
 ! D20   D(2,1,10,12)           30.0            estimate D2E/DX2                !
 ! D21   D(2,1,10,13)          -90.0            estimate D2E/DX2                !
 ! D22   D(6,1,10,11)           30.0            estimate D2E/DX2                !
 ! D23   D(6,1,10,12)          -90.0            estimate D2E/DX2                !
 ! D24   D(6,1,10,13)          150.0            estimate D2E/DX2                !
 ! D25   D(14,1,10,11)         -90.0            estimate D2E/DX2                !
 ! D26   D(14,1,10,12)         150.0            estimate D2E/DX2                !
 ! D27   D(14,1,10,13)          30.0            estimate D2E/DX2                !
 ! D28   D(2,1,14,15)           30.0            estimate D2E/DX2                !
 ! D29   D(2,1,14,16)          -90.0            estimate D2E/DX2                !
 ! D30   D(2,1,14,17)          150.0            estimate D2E/DX2                !
 ! D31   D(6,1,14,15)          150.0            estimate D2E/DX2                !
 ! D32   D(6,1,14,16)           30.0            estimate D2E/DX2                !
 ! D33   D(6,1,14,17)          -90.0            estimate D2E/DX2                !
 ! D34   D(10,1,14,15)         -90.0            estimate D2E/DX2                !
 ! D35   D(10,1,14,16)         150.0            estimate D2E/DX2                !
 ! D36   D(10,1,14,17)          30.0            estimate D2E/DX2                !
 --------------------------------------------------------------------------------
 Trust Radius=3.00D-01 FncErr=1.00D-07 GrdErr=1.00D-06
 Number of steps in this run=     92 maximum allowed number of steps=    102.
 GradGradGradGradGradGradGradGradGradGradGradGradGradGradGradGradGradGrad

 Leave Link  103 at Wed Jan  8 19:10:49 2020, MaxMem=  6710886400 cpu:         0.2
 (Enter /usr/local/g09/l202.exe)
                          Input orientation:                          
 ---------------------------------------------------------------------
 Center     Atomic      Atomic             Coordinates (Angstroms)
 Number     Number       Type             X           Y           Z
 ---------------------------------------------------------------------
      1         29           0        0.000000    0.000000   -0.247608
      2         15           0       -2.092999   -0.012546    0.492391
      3          1           0       -2.146024   -0.649271    1.681622
      4          1           0       -2.880857   -0.653676   -0.396840
      5          1           0       -2.524885    1.257680    0.642391
      6         15           0        1.057365   -1.806317    0.492391
      7          1           0        2.006529   -2.168057   -0.396840
      8          1           0        0.173259   -2.815454    0.642391
      9          1           0        1.635297   -1.533875    1.681622
     10         15           0        1.035634    1.818863    0.492391
     11          1           0        2.351625    1.557774    0.642391
     12          1           0        0.510726    2.183147    1.681622
     13          1           0        0.874328    2.821733   -0.396840
     14          5           0        0.000000    0.000000   -2.187608
     15          1           0       -0.876658    0.499157   -2.544275
     16          1           0        0.006047   -1.008787   -2.544275
     17          1           0        0.870611    0.509630   -2.544275
 ---------------------------------------------------------------------
                    Distance matrix (angstroms):
                    1          2          3          4          5
     1  Cu   0.000000
     2  P    2.220000   0.000000
     3  H    2.957853   1.350000   0.000000
     4  H    2.957854   1.350000   2.204541   0.000000
     5  H    2.957854   1.350000   2.204541   2.204541   0.000000
     6  P    2.220000   3.625245   3.607592   4.198678   4.716258
     7  H    2.957854   4.716257   4.885735   5.116628   5.774892
     8  H    2.957854   3.607592   3.339375   3.883415   4.885735
     9  H    2.957853   4.198679   3.883415   5.048802   5.116629
    10  P    2.220000   3.625245   4.198679   4.716257   3.607592
    11  H    2.957854   4.716258   5.116629   5.774892   4.885735
    12  H    2.957853   3.607592   3.883415   4.885735   3.339375
    13  H    2.957854   4.198678   5.048802   5.116628   3.883415
    14  B    1.940000   3.400470   4.471902   3.454486   3.995710
    15  H    2.508459   3.310991   4.559427   3.155520   3.666994
    16  H    2.508459   3.823588   4.755929   3.615493   4.658039
    17  H    2.508459   4.275160   5.319900   4.476413   4.716334
                    6          7          8          9         10
     6  P    0.000000
     7  H    1.350000   0.000000
     8  H    1.350000   2.204541   0.000000
     9  H    1.350000   2.204541   2.204541   0.000000
    10  P    3.625245   4.198678   4.716258   3.607592   0.000000
    11  H    3.607592   3.883415   4.885735   3.339375   1.350000
    12  H    4.198679   5.048802   5.116629   3.883415   1.350000
    13  H    4.716257   5.116628   5.774892   4.885735   1.350000
    14  B    3.400470   3.454486   3.995710   4.471902   3.400470
    15  H    4.275160   4.476413   4.716334   5.319900   3.823588
    16  H    3.310991   3.155520   3.666994   4.559427   4.275160
    17  H    3.823588   3.615493   4.658039   4.755929   3.310991
                   11         12         13         14         15
    11  H    0.000000
    12  H    2.204541   0.000000
    13  H    2.204541   2.204541   0.000000
    14  B    3.995710   4.471902   3.454486   0.000000
    15  H    4.658039   4.755929   3.615493   1.069999   0.000000
    16  H    4.716334   5.319900   4.476413   1.069999   1.747301
    17  H    3.666994   4.559427   3.155520   1.069999   1.747301
                   16         17
    16  H    0.000000
    17  H    1.747301   0.000000
 Stoichiometry    BCuH12P3(2)
 Framework group  C3[C3(CuB),X(H12P3)]
 Deg. of freedom    15
 Full point group                 C3      NOp   3
 Largest Abelian subgroup         C1      NOp   1
 Largest concise Abelian subgroup C1      NOp   1
                         Standard orientation:                         
 ---------------------------------------------------------------------
 Center     Atomic      Atomic             Coordinates (Angstroms)
 Number     Number       Type             X           Y           Z
 ---------------------------------------------------------------------
      1         29           0        0.000000    0.000000    0.271648
      2         15           0        0.000000    2.093036   -0.468351
      3          1           0        0.636396    2.149877   -1.657582
      4          1           0        0.636396    2.884723    0.420880
      5          1           0       -1.272792    2.517301   -0.618351
      6         15           0        1.812623   -1.046518   -0.468351
      7          1           0        2.180045   -1.993497    0.420880
      8          1           0        2.816442   -0.156380   -0.618351
      9          1           0        1.543650   -1.626073   -1.657582
     10         15           0       -1.812623   -1.046518   -0.468351
     11          1           0       -1.543650   -2.360921   -0.618351
     12          1           0       -2.180046   -0.523803   -1.657582
     13          1           0       -2.816442   -0.891226    0.420880
     14          5           0        0.000000    0.000000    2.211648
     15          1           0       -0.504402    0.873651    2.568314
     16          1           0        1.008805    0.000000    2.568314
     17          1           0       -0.504402   -0.873651    2.568314
 ---------------------------------------------------------------------
 Rotational constants (GHZ):      1.4576286      1.4576286      1.0621949
 Leave Link  202 at Wed Jan  8 19:10:49 2020, MaxMem=  6710886400 cpu:         0.9
 (Enter /usr/local/g09/l301.exe)
 Standard basis: def2TZVP (5D, 7F)
 Ernie: Thresh=  0.10000D-02 Tol=  0.10000D-05 Strict=F.
 AO basis set in the form of general basis input (Overlap normalization):
      1 0
 S   8 1.00       0.000000000000
      0.3775187992D+06  0.2387915303D-03
      0.5658998431D+05  0.1851567802D-02
      0.1287871171D+05  0.9629793249D-02
      0.3645375214D+04  0.3916151785D-01
      0.1187007294D+04  0.1276025095D+00
      0.4264642190D+03  0.3034008839D+00
      0.1657066016D+03  0.4347519283D+00
      0.6559894271D+02  0.2293079503D+00
 S   4 1.00       0.000000000000
      0.4144126581D+03 -0.2498665245D-01
      0.1283205604D+03 -0.1186119709D+00
      0.2062208975D+02  0.5598271484D+00
      0.8782122604D+01  0.5288643080D+00
 S   2 1.00       0.000000000000
      0.1374137201D+02 -0.3699327832D+00
      0.2243124683D+01  0.1167608739D+01
 S   1 1.00       0.000000000000
      0.8937054908D+00  0.1000000000D+01
 S   1 1.00       0.000000000000
      0.1083669953D+00  0.1000000000D+01
 S   1 1.00       0.000000000000
      0.3880617806D-01  0.1000000000D+01
 P   6 1.00       0.000000000000
      0.2034759669D+04  0.2677618662D-02
      0.4819046811D+03  0.2177858956D-01
      0.1546748296D+03  0.1026336485D+00
      0.5774057697D+02  0.2966548980D+00
      0.2309905281D+02  0.4791122399D+00
      0.9388247859D+01  0.2770928296D+00
 P   3 1.00       0.000000000000
      0.3759617121D+02 -0.2073015057D-01
      0.5124069081D+01  0.3927002052D+00
      0.2011999609D+01  0.6706714234D+00
 P   1 1.00       0.000000000000
      0.7386068600D+00  0.1000000000D+01
 P   1 1.00       0.000000000000
      0.1550650000D+00  0.1000000000D+01
 D   4 1.00       0.000000000000
      0.7412946064D+02  0.2222585330D-01
      0.2135984259D+02  0.1340497188D+00
      0.7499524054D+01  0.3966245361D+00
      0.2760139417D+01  0.6247541952D+00
 D   1 1.00       0.000000000000
      0.9536206124D+00  0.1000000000D+01
 D   1 1.00       0.000000000000
      0.2842086252D+00  0.1000000000D+01
 D   1 1.00       0.000000000000
      0.8500000000D-01  0.1000000000D+01
 F   1 1.00       0.000000000000
      0.2233000000D+01  0.1000000000D+01
 ****
      2 0
 S   7 1.00       0.000000000000
      0.5242699923D+05  0.5350794754D-03
      0.7863266055D+04  0.4136499449D-02
      0.1789522733D+04  0.2125650053D-01
      0.5062730017D+03  0.8303042596D-01
      0.1646069855D+03  0.2407611725D+00
      0.5839191872D+02  0.4491055900D+00
      0.2164366320D+02  0.3426250636D+00
 S   3 1.00       0.000000000000
      0.9901383762D+02  0.8820426703D-01
      0.3055043982D+02  0.3853170872D+00
      0.5453708766D+01 -0.1186531918D+01
 S   2 1.00       0.000000000000
      0.2650336256D+01  0.6822575618D+00
      0.1272668887D+01  0.3392684095D+00
 S   1 1.00       0.000000000000
      0.3164500520D+00  0.1000000000D+01
 S   1 1.00       0.000000000000
      0.1141746694D+00  0.1000000000D+01
 P   5 1.00       0.000000000000
      0.4722721925D+03  0.3644000722D-02
      0.1115888276D+03  0.2870101607D-01
      0.3544593642D+02  0.1297985651D+00
      0.1299077688D+02  0.3649504286D+00
      0.5048622166D+01  0.6075015660D+00
 P   1 1.00       0.000000000000
      0.1993404957D+01  0.1000000000D+01
 P   1 1.00       0.000000000000
      0.6652728443D+00  0.1000000000D+01
 P   1 1.00       0.000000000000
      0.2551683213D+00  0.1000000000D+01
 P   1 1.00       0.000000000000
      0.9035776225D-01  0.1000000000D+01
 D   2 1.00       0.000000000000
      0.3120000000D+01  0.1833871821D+00
      0.6480000000D+00  0.9169359104D+00
 D   1 1.00       0.000000000000
      0.2180000000D+00  0.1000000000D+01
 F   1 1.00       0.000000000000
      0.4520000000D+00  0.1000000000D+01
 ****
      3 0
 S   3 1.00       0.000000000000
      0.3406134100D+02  0.2543930721D-01
      0.5123574600D+01  0.1900859489D+00
      0.1164662600D+01  0.8524411301D+00
 S   1 1.00       0.000000000000
      0.3272304100D+00  0.1000000000D+01
 S   1 1.00       0.000000000000
      0.1030724100D+00  0.1000000000D+01
 P   1 1.00       0.000000000000
      0.8000000000D+00  0.1000000000D+01
 ****
      4 0
 S   3 1.00       0.000000000000
      0.3406134100D+02  0.2543930721D-01
      0.5123574600D+01  0.1900859489D+00
      0.1164662600D+01  0.8524411301D+00
 S   1 1.00       0.000000000000
      0.3272304100D+00  0.1000000000D+01
 S   1 1.00       0.000000000000
      0.1030724100D+00  0.1000000000D+01
 P   1 1.00       0.000000000000
      0.8000000000D+00  0.1000000000D+01
 ****
      5 0
 S   3 1.00       0.000000000000
      0.3406134100D+02  0.2543930721D-01
      0.5123574600D+01  0.1900859489D+00
      0.1164662600D+01  0.8524411301D+00
 S   1 1.00       0.000000000000
      0.3272304100D+00  0.1000000000D+01
 S   1 1.00       0.000000000000
      0.1030724100D+00  0.1000000000D+01
 P   1 1.00       0.000000000000
      0.8000000000D+00  0.1000000000D+01
 ****
      6 0
 S   7 1.00       0.000000000000
      0.5242699923D+05  0.5350794754D-03
      0.7863266055D+04  0.4136499449D-02
      0.1789522733D+04  0.2125650053D-01
      0.5062730017D+03  0.8303042596D-01
      0.1646069855D+03  0.2407611725D+00
      0.5839191872D+02  0.4491055900D+00
      0.2164366320D+02  0.3426250636D+00
 S   3 1.00       0.000000000000
      0.9901383762D+02  0.8820426703D-01
      0.3055043982D+02  0.3853170872D+00
      0.5453708766D+01 -0.1186531918D+01
 S   2 1.00       0.000000000000
      0.2650336256D+01  0.6822575618D+00
      0.1272668887D+01  0.3392684095D+00
 S   1 1.00       0.000000000000
      0.3164500520D+00  0.1000000000D+01
 S   1 1.00       0.000000000000
      0.1141746694D+00  0.1000000000D+01
 P   5 1.00       0.000000000000
      0.4722721925D+03  0.3644000722D-02
      0.1115888276D+03  0.2870101607D-01
      0.3544593642D+02  0.1297985651D+00
      0.1299077688D+02  0.3649504286D+00
      0.5048622166D+01  0.6075015660D+00
 P   1 1.00       0.000000000000
      0.1993404957D+01  0.1000000000D+01
 P   1 1.00       0.000000000000
      0.6652728443D+00  0.1000000000D+01
 P   1 1.00       0.000000000000
      0.2551683213D+00  0.1000000000D+01
 P   1 1.00       0.000000000000
      0.9035776225D-01  0.1000000000D+01
 D   2 1.00       0.000000000000
      0.3120000000D+01  0.1833871821D+00
      0.6480000000D+00  0.9169359104D+00
 D   1 1.00       0.000000000000
      0.2180000000D+00  0.1000000000D+01
 F   1 1.00       0.000000000000
      0.4520000000D+00  0.1000000000D+01
 ****
      7 0
 S   3 1.00       0.000000000000
      0.3406134100D+02  0.2543930721D-01
      0.5123574600D+01  0.1900859489D+00
      0.1164662600D+01  0.8524411301D+00
 S   1 1.00       0.000000000000
      0.3272304100D+00  0.1000000000D+01
 S   1 1.00       0.000000000000
      0.1030724100D+00  0.1000000000D+01
 P   1 1.00       0.000000000000
      0.8000000000D+00  0.1000000000D+01
 ****
      8 0
 S   3 1.00       0.000000000000
      0.3406134100D+02  0.2543930721D-01
      0.5123574600D+01  0.1900859489D+00
      0.1164662600D+01  0.8524411301D+00
 S   1 1.00       0.000000000000
      0.3272304100D+00  0.1000000000D+01
 S   1 1.00       0.000000000000
      0.1030724100D+00  0.1000000000D+01
 P   1 1.00       0.000000000000
      0.8000000000D+00  0.1000000000D+01
 ****
      9 0
 S   3 1.00       0.000000000000
      0.3406134100D+02  0.2543930721D-01
      0.5123574600D+01  0.1900859489D+00
      0.1164662600D+01  0.8524411301D+00
 S   1 1.00       0.000000000000
      0.3272304100D+00  0.1000000000D+01
 S   1 1.00       0.000000000000
      0.1030724100D+00  0.1000000000D+01
 P   1 1.00       0.000000000000
      0.8000000000D+00  0.1000000000D+01
 ****
     10 0
 S   7 1.00       0.000000000000
      0.5242699923D+05  0.5350794754D-03
      0.7863266055D+04  0.4136499449D-02
      0.1789522733D+04  0.2125650053D-01
      0.5062730017D+03  0.8303042596D-01
      0.1646069855D+03  0.2407611725D+00
      0.5839191872D+02  0.4491055900D+00
      0.2164366320D+02  0.3426250636D+00
 S   3 1.00       0.000000000000
      0.9901383762D+02  0.8820426703D-01
      0.3055043982D+02  0.3853170872D+00
      0.5453708766D+01 -0.1186531918D+01
 S   2 1.00       0.000000000000
      0.2650336256D+01  0.6822575618D+00
      0.1272668887D+01  0.3392684095D+00
 S   1 1.00       0.000000000000
      0.3164500520D+00  0.1000000000D+01
 S   1 1.00       0.000000000000
      0.1141746694D+00  0.1000000000D+01
 P   5 1.00       0.000000000000
      0.4722721925D+03  0.3644000722D-02
      0.1115888276D+03  0.2870101607D-01
      0.3544593642D+02  0.1297985651D+00
      0.1299077688D+02  0.3649504286D+00
      0.5048622166D+01  0.6075015660D+00
 P   1 1.00       0.000000000000
      0.1993404957D+01  0.1000000000D+01
 P   1 1.00       0.000000000000
      0.6652728443D+00  0.1000000000D+01
 P   1 1.00       0.000000000000
      0.2551683213D+00  0.1000000000D+01
 P   1 1.00       0.000000000000
      0.9035776225D-01  0.1000000000D+01
 D   2 1.00       0.000000000000
      0.3120000000D+01  0.1833871821D+00
      0.6480000000D+00  0.9169359104D+00
 D   1 1.00       0.000000000000
      0.2180000000D+00  0.1000000000D+01
 F   1 1.00       0.000000000000
      0.4520000000D+00  0.1000000000D+01
 ****
     11 0
 S   3 1.00       0.000000000000
      0.3406134100D+02  0.2543930721D-01
      0.5123574600D+01  0.1900859489D+00
      0.1164662600D+01  0.8524411301D+00
 S   1 1.00       0.000000000000
      0.3272304100D+00  0.1000000000D+01
 S   1 1.00       0.000000000000
      0.1030724100D+00  0.1000000000D+01
 P   1 1.00       0.000000000000
      0.8000000000D+00  0.1000000000D+01
 ****
     12 0
 S   3 1.00       0.000000000000
      0.3406134100D+02  0.2543930721D-01
      0.5123574600D+01  0.1900859489D+00
      0.1164662600D+01  0.8524411301D+00
 S   1 1.00       0.000000000000
      0.3272304100D+00  0.1000000000D+01
 S   1 1.00       0.000000000000
      0.1030724100D+00  0.1000000000D+01
 P   1 1.00       0.000000000000
      0.8000000000D+00  0.1000000000D+01
 ****
     13 0
 S   3 1.00       0.000000000000
      0.3406134100D+02  0.2543930721D-01
      0.5123574600D+01  0.1900859489D+00
      0.1164662600D+01  0.8524411301D+00
 S   1 1.00       0.000000000000
      0.3272304100D+00  0.1000000000D+01
 S   1 1.00       0.000000000000
      0.1030724100D+00  0.1000000000D+01
 P   1 1.00       0.000000000000
      0.8000000000D+00  0.1000000000D+01
 ****
     14 0
 S   6 1.00       0.000000000000
      0.8564866069D+04  0.6375463009D-03
      0.1284151626D+04  0.4936446725D-02
      0.2922787160D+03  0.2551812428D-01
      0.8277546918D+02  0.1014577835D+00
      0.2701793927D+02  0.3088586856D+00
      0.9814961966D+01  0.6523463970D+00
 S   2 1.00       0.000000000000
      0.3931855906D+01  0.6715277955D+00
      0.1659559971D+01  0.3585034506D+00
 S   1 1.00       0.000000000000
      0.3576296524D+00  0.1000000000D+01
 S   1 1.00       0.000000000000
      0.1424627750D+00  0.1000000000D+01
 S   1 1.00       0.000000000000
      0.6056059477D-01  0.1000000000D+01
 P   4 1.00       0.000000000000
      0.2245387580D+02  0.1118903639D-01
      0.5104505833D+01  0.7301614466D-01
      0.1498608134D+01  0.2927442869D+00
      0.5092783132D+00  0.7389636283D+00
 P   1 1.00       0.000000000000
      0.1814707780D+00  0.1000000000D+01
 P   1 1.00       0.000000000000
      0.6462189390D-01  0.1000000000D+01
 D   1 1.00       0.000000000000
      0.6610000000D+00  0.1000000000D+01
 D   1 1.00       0.000000000000
      0.1990000000D+00  0.1000000000D+01
 F   1 1.00       0.000000000000
      0.4900000000D+00  0.1000000000D+01
 ****
     15 0
 S   3 1.00       0.000000000000
      0.3406134100D+02  0.2543930721D-01
      0.5123574600D+01  0.1900859489D+00
      0.1164662600D+01  0.8524411301D+00
 S   1 1.00       0.000000000000
      0.3272304100D+00  0.1000000000D+01
 S   1 1.00       0.000000000000
      0.1030724100D+00  0.1000000000D+01
 P   1 1.00       0.000000000000
      0.8000000000D+00  0.1000000000D+01
 ****
     16 0
 S   3 1.00       0.000000000000
      0.3406134100D+02  0.2543930721D-01
      0.5123574600D+01  0.1900859489D+00
      0.1164662600D+01  0.8524411301D+00
 S   1 1.00       0.000000000000
      0.3272304100D+00  0.1000000000D+01
 S   1 1.00       0.000000000000
      0.1030724100D+00  0.1000000000D+01
 P   1 1.00       0.000000000000
      0.8000000000D+00  0.1000000000D+01
 ****
     17 0
 S   3 1.00       0.000000000000
      0.3406134100D+02  0.2543930721D-01
      0.5123574600D+01  0.1900859489D+00
      0.1164662600D+01  0.8524411301D+00
 S   1 1.00       0.000000000000
      0.3272304100D+00  0.1000000000D+01
 S   1 1.00       0.000000000000
      0.1030724100D+00  0.1000000000D+01
 P   1 1.00       0.000000000000
      0.8000000000D+00  0.1000000000D+01
 ****

 There are   286 symmetry adapted cartesian basis functions of A   symmetry.
 There are   259 symmetry adapted basis functions of A   symmetry.
   259 basis functions,   456 primitive gaussians,   286 cartesian basis functions
    46 alpha electrons       45 beta electrons
       nuclear repulsion energy       678.8516989284 Hartrees.
 IExCor= 1009 DFT=T Ex+Corr=PBE1PBE ExCW=0 ScaHFX=  0.250000
 ScaDFX=  0.750000  0.750000  1.000000  1.000000 ScalE2=  1.000000  1.000000
 IRadAn=      5 IRanWt=     -1 IRanGd=            0 ICorTp=0 IEmpDi=  4
 NAtoms=   17 NActive=   17 NUniq=    7 SFac= 4.00D+00 NAtFMM=   60 NAOKFM=F Big=F
 Integral buffers will be    131072 words long.
 Raffenetti 2 integral format.
 Two-electron integral symmetry is turned on.
 Leave Link  301 at Wed Jan  8 19:10:49 2020, MaxMem=  6710886400 cpu:         1.8
 (Enter /usr/local/g09/l302.exe)
 NPDir=0 NMtPBC=     1 NCelOv=     1 NCel=       1 NClECP=     1 NCelD=      1
         NCelK=      1 NCelE2=     1 NClLst=     1 CellRange=     0.0.
 One-electron integrals computed using PRISM.
   1 Symmetry operations used in ECPInt.
 ECPInt:  NShTT=    6441 NPrTT=   22170 LenC2=    6319 LenP2D=   16531.
 LDataN:  DoStor=T MaxTD1= 6 Len=  172
 NBasis=   259 RedAO= T EigKep=  1.03D-03  NBF=   259
 NBsUse=   259 1.00D-06 EigRej= -1.00D+00 NBFU=   259
 Precomputing XC quadrature grid using
 IXCGrd= 4 IRadAn=           5 IRanWt=          -1 IRanGd=           0 AccXCQ= 0.00D+00.
 Generated NRdTot=       0 NPtTot=           0 NUsed=           0 NTot=          32
 NSgBfM=   283   283   283   283   283 MxSgAt=    17 MxSgA2=    17.
 Leave Link  302 at Wed Jan  8 19:10:50 2020, MaxMem=  6710886400 cpu:         9.1
 (Enter /usr/local/g09/l303.exe)
 DipDrv:  MaxL=1.
 Leave Link  303 at Wed Jan  8 19:10:50 2020, MaxMem=  6710886400 cpu:         3.6
 (Enter /usr/local/g09/l401.exe)
 ExpMin= 3.88D-02 ExpMax= 3.78D+05 ExpMxC= 3.65D+03 IAcc=3 IRadAn=         5 AccDes= 0.00D+00
 Harris functional with IExCor= 1009 and IRadAn=       5 diagonalized for initial guess.
 HarFok:  IExCor= 1009 AccDes= 0.00D+00 IRadAn=         5 IDoV= 1 UseB2=F ITyADJ=14
 ICtDFT=  3500011 ScaDFX=  1.000000  1.000000  1.000000  1.000000
 FoFCou: FMM=F IPFlag=           0 FMFlag=      100000 FMFlg1=           0
         NFxFlg=           0 DoJE=T BraDBF=F KetDBF=T FulRan=T
         wScrn=  0.000000 ICntrl=     500 IOpCl=  0 I1Cent=   200000004 NGrid=           0
         NMat0=    1 NMatS0=      1 NMatT0=    0 NMatD0=    1 NMtDS0=    0 NMtDT0=    0
 Petite list used in FoFCou.
 Harris En= -2695.95231988187    
 JPrj=0 DoOrth=F DoCkMO=F.
 Initial guess orbital symmetries:
 Alpha Orbitals:
       Occupied  (A) (E) (E) (A) (A) (A) (E) (E) (A) (E) (E) (A)
                 (E) (E) (A) (A) (E) (E) (E) (E) (A) (A) (A) (E)
                 (E) (A) (E) (E) (A) (E) (E) (E) (E) (A) (E) (E)
                 (A) (A) (E) (E) (A) (E) (E) (A) (E) (E)
       Virtual   (A) (E) (E) (A) (E) (E) (A) (E) (E) (A) (A) (E)
                 (E) (E) (E) (E) (E) (A) (A) (E) (E) (E) (E) (A)
                 (A) (E) (E) (E) (E) (A) (A) (A) (E) (E) (A) (A)
                 (E) (E) (E) (E) (E) (E) (A) (A) (E) (E) (E) (E)
                 (A) (A) (E) (E) (A) (E) (E) (A) (E) (E) (E) (E)
                 (A) (E) (E) (A) (A) (E) (E) (A) (E) (E) (A) (E)
                 (E) (E) (E) (A) (E) (E) (E) (E) (A) (A) (A) (E)
                 (E) (A) (E) (E) (E) (E) (A) (A) (E) (E) (E) (E)
                 (A) (A) (E) (E) (E) (E) (A) (A) (A) (E) (E) (A)
                 (E) (E) (E) (E) (A) (A) (E) (E) (E) (E) (E) (E)
                 (A) (A) (E) (E) (A) (E) (E) (A) (E) (E) (A) (E)
                 (E) (A) (E) (E) (A) (E) (E) (A) (E) (E) (A) (E)
                 (E) (A) (E) (E) (A) (E) (E) (A) (E) (E) (A) (E)
                 (E) (A) (E) (E) (E) (E) (A) (A) (E) (E) (A) (E)
                 (E) (E) (E) (A) (E) (E) (A) (E) (E) (A) (E) (E)
                 (A) (A) (E) (E) (A) (E) (E) (A) (E) (E) (E) (E)
                 (A) (A) (E) (E) (E) (E) (A) (A) (A) (E) (E) (A)
                 (E) (E) (A) (E) (E) (A) (E) (E) (A)
 Beta  Orbitals:
       Occupied  (A) (E) (E) (A) (A) (A) (E) (E) (A) (E) (E) (A)
                 (E) (E) (A) (A) (E) (E) (E) (E) (A) (A) (A) (E)
                 (E) (A) (E) (E) (A) (E) (E) (E) (E) (A) (E) (E)
                 (A) (A) (E) (E) (A) (E) (E) (A) (E)
       Virtual   (E) (A) (E) (E) (A) (E) (E) (A) (E) (E) (A) (A)
                 (E) (E) (E) (E) (E) (E) (A) (A) (E) (E) (E) (E)
                 (A) (A) (E) (E) (E) (E) (A) (A) (A) (E) (E) (A)
                 (A) (E) (E) (E) (E) (E) (E) (A) (A) (E) (E) (E)
                 (E) (A) (A) (E) (E) (A) (E) (E) (A) (E) (E) (E)
                 (E) (A) (E) (E) (A) (A) (E) (E) (A) (E) (E) (A)
                 (E) (E) (E) (E) (A) (E) (E) (E) (E) (A) (A) (A)
                 (E) (E) (A) (E) (E) (E) (E) (A) (A) (E) (E) (E)
                 (E) (A) (A) (E) (E) (E) (E) (A) (A) (A) (E) (E)
                 (A) (E) (E) (E) (E) (A) (A) (E) (E) (E) (E) (E)
                 (E) (A) (A) (E) (E) (A) (E) (E) (A) (E) (E) (A)
                 (E) (E) (A) (E) (E) (A) (E) (E) (A) (E) (E) (A)
                 (E) (E) (A) (E) (E) (A) (E) (E) (A) (E) (E) (A)
                 (E) (E) (A) (E) (E) (E) (E) (A) (A) (E) (E) (A)
                 (E) (E) (E) (E) (A) (E) (E) (A) (E) (E) (A) (E)
                 (E) (A) (A) (E) (E) (A) (E) (E) (A) (E) (E) (E)
                 (E) (A) (A) (E) (E) (E) (E) (A) (A) (A) (E) (E)
                 (A) (E) (E) (A) (E) (E) (A) (E) (E) (A)
 Initial guess <Sx>= 0.0000 <Sy>= 0.0000 <Sz>= 0.5000 <S**2>= 0.7500 S= 0.5000
 Leave Link  401 at Wed Jan  8 19:10:51 2020, MaxMem=  6710886400 cpu:        13.1
 (Enter /usr/local/g09/l502.exe)
 UHF open shell SCF:
 Using DIIS extrapolation, IDIIS=  1040.
 Integral symmetry usage will be decided dynamically.
 Keep R1 and R2 ints in memory in canonical form, NReq=1145795528.
 IVT=      273150 IEndB=      273150 NGot=  6710886400 MDV=  5576910681
 LenX=  5576910681 LenY=  5576828444
 Requested convergence on RMS density matrix=1.00D-08 within 128 cycles.
 Requested convergence on MAX density matrix=1.00D-06.
 Requested convergence on             energy=1.00D-06.
 No special actions if energy rises.
 FoFCou: FMM=F IPFlag=           0 FMFlag=           0 FMFlg1=           0
         NFxFlg=           0 DoJE=F BraDBF=F KetDBF=F FulRan=T
         wScrn=  0.000000 ICntrl=     600 IOpCl=  0 I1Cent=           0 NGrid=           0
         NMat0=    1 NMatS0=  33670 NMatT0=    0 NMatD0=    1 NMtDS0=    0 NMtDT0=    0
 Symmetry not used in FoFCou.

 Cycle   1  Pass 1  IDiag  1:
 Density matrix breaks symmetry, PCut= 1.00D-04
 Density has only Abelian symmetry.
 E= -2694.00184990977    
 DIIS: error= 1.27D-01 at cycle   1 NSaved=   1.
 NSaved= 1 IEnMin= 1 EnMin= -2694.00184990977     IErMin= 1 ErrMin= 1.27D-01
 ErrMax= 1.27D-01  0.00D+00 EMaxC= 1.00D-01 BMatC= 1.73D+01 BMatP= 1.73D+01
 IDIUse=3 WtCom= 0.00D+00 WtEn= 1.00D+00
 Coeff-Com:  0.100D+01
 Coeff-En:   0.100D+01
 Coeff:      0.100D+01
 Gap=     1.035 Goal=   None    Shift=    0.000
 Gap=     0.126 Goal=   None    Shift=    0.000
 GapD=    0.126 DampG=1.000 DampE=0.125 DampFc=0.1250 IDamp=-1.
 Damping current iteration by 1.25D-01
 RMSDP=2.20D-02 MaxDP=3.94D+00              OVMax= 9.13D-01

 Cycle   2  Pass 1  IDiag  1:
 Density matrix breaks symmetry, PCut= 1.00D-04
 Density has only Abelian symmetry.
 E= -2694.55751413906     Delta-E=       -0.555664229290 Rises=F Damp=T
 DIIS: error= 7.65D-02 at cycle   2 NSaved=   2.
 NSaved= 2 IEnMin= 2 EnMin= -2694.55751413906     IErMin= 2 ErrMin= 7.65D-02
 ErrMax= 7.65D-02  0.00D+00 EMaxC= 1.00D-01 BMatC= 6.13D+00 BMatP= 1.73D+01
 IDIUse=3 WtCom= 2.35D-01 WtEn= 7.65D-01
 Coeff-Com: -0.141D+01 0.241D+01
 Coeff-En:   0.000D+00 0.100D+01
 Coeff:     -0.331D+00 0.133D+01
 Gap=     0.002 Goal=   None    Shift=    0.000
 Gap=     0.019 Goal=   None    Shift=    0.000
 RMSDP=5.14D-03 MaxDP=3.15D-01 DE=-5.56D-01 OVMax= 9.85D-01

 Cycle   3  Pass 1  IDiag  1:
 Density matrix breaks symmetry, PCut= 1.00D-04
 Density has only Abelian symmetry.
 E= -2693.67943753016     Delta-E=        0.878076608901 Rises=F Damp=F
 DIIS: error= 1.10D-01 at cycle   3 NSaved=   3.
 NSaved= 3 IEnMin= 2 EnMin= -2694.55751413906     IErMin= 2 ErrMin= 7.65D-02
 ErrMax= 1.10D-01  0.00D+00 EMaxC= 1.00D-01 BMatC= 2.50D+01 BMatP= 6.13D+00
 IDIUse=2 WtCom= 0.00D+00 WtEn= 1.00D+00
 EnCoef did   100 forward-backward iterations
 Coeff-En:   0.520D+00 0.996D-02 0.470D+00
 Coeff:      0.520D+00 0.996D-02 0.470D+00
 Gap=     0.056 Goal=   None    Shift=    0.000
 Gap=     0.122 Goal=   None    Shift=    0.000
 RMSDP=4.32D-03 MaxDP=5.51D-01 DE= 8.78D-01 OVMax= 2.14D-01

 Cycle   4  Pass 1  IDiag  1:
 Density matrix breaks symmetry, PCut= 1.00D-04
 Density has only Abelian symmetry.
 E= -2695.73083056387     Delta-E=       -2.051393033704 Rises=F Damp=F
 DIIS: error= 2.23D-02 at cycle   4 NSaved=   4.
 NSaved= 4 IEnMin= 4 EnMin= -2695.73083056387     IErMin= 4 ErrMin= 2.23D-02
 ErrMax= 2.23D-02  0.00D+00 EMaxC= 1.00D-01 BMatC= 3.13D-01 BMatP= 6.13D+00
 IDIUse=3 WtCom= 7.77D-01 WtEn= 2.23D-01
 Coeff-Com: -0.576D+00 0.104D+01 0.155D-01 0.524D+00
 Coeff-En:   0.000D+00 0.000D+00 0.000D+00 0.100D+01
 Coeff:     -0.447D+00 0.805D+00 0.121D-01 0.630D+00
 Gap=     0.187 Goal=   None    Shift=    0.000
 Gap=     0.212 Goal=   None    Shift=    0.000
 RMSDP=3.59D-03 MaxDP=2.79D-01 DE=-2.05D+00 OVMax= 3.69D-01

 Cycle   5  Pass 1  IDiag  1:
 Density matrix breaks symmetry, PCut= 1.00D-04
 Density has only Abelian symmetry.
 E= -2695.70324549094     Delta-E=        0.027585072929 Rises=F Damp=F
 DIIS: error= 3.05D-02 at cycle   5 NSaved=   5.
 NSaved= 5 IEnMin= 4 EnMin= -2695.73083056387     IErMin= 4 ErrMin= 2.23D-02
 ErrMax= 3.05D-02  0.00D+00 EMaxC= 1.00D-01 BMatC= 7.16D-01 BMatP= 3.13D-01
 IDIUse=2 WtCom= 0.00D+00 WtEn= 1.00D+00
 Coeff-En:   0.000D+00 0.000D+00 0.000D+00 0.558D+00 0.442D+00
 Coeff:      0.000D+00 0.000D+00 0.000D+00 0.558D+00 0.442D+00
 Gap=     0.140 Goal=   None    Shift=    0.000
 Gap=     0.153 Goal=   None    Shift=    0.000
 RMSDP=1.94D-03 MaxDP=1.02D-01 DE= 2.76D-02 OVMax= 2.07D-01

 Cycle   6  Pass 1  IDiag  1:
 Density matrix breaks symmetry, PCut= 1.00D-04
 Density has only Abelian symmetry.
 E= -2695.65945262170     Delta-E=        0.043792869241 Rises=F Damp=F
 DIIS: error= 3.90D-02 at cycle   6 NSaved=   6.
 NSaved= 6 IEnMin= 4 EnMin= -2695.73083056387     IErMin= 4 ErrMin= 2.23D-02
 ErrMax= 3.90D-02  0.00D+00 EMaxC= 1.00D-01 BMatC= 2.09D+00 BMatP= 3.13D-01
 IDIUse=2 WtCom= 0.00D+00 WtEn= 1.00D+00
 EnCoef did     4 forward-backward iterations
 Coeff-En:   0.000D+00 0.000D+00 0.000D+00 0.389D+00 0.370D+00 0.241D+00
 Coeff:      0.000D+00 0.000D+00 0.000D+00 0.389D+00 0.370D+00 0.241D+00
 Gap=     0.147 Goal=   None    Shift=    0.000
 Gap=     0.193 Goal=   None    Shift=    0.000
 RMSDP=1.18D-03 MaxDP=6.36D-02 DE= 4.38D-02 OVMax= 1.21D-01

 Cycle   7  Pass 1  IDiag  1:
 Density matrix breaks symmetry, PCut= 1.00D-04
 Density has only Abelian symmetry.
 E= -2695.83290156047     Delta-E=       -0.173448938770 Rises=F Damp=F
 DIIS: error= 7.55D-03 at cycle   7 NSaved=   7.
 NSaved= 7 IEnMin= 7 EnMin= -2695.83290156047     IErMin= 7 ErrMin= 7.55D-03
 ErrMax= 7.55D-03  0.00D+00 EMaxC= 1.00D-01 BMatC= 9.81D-02 BMatP= 3.13D-01
 IDIUse=3 WtCom= 9.25D-01 WtEn= 7.55D-02
 Coeff-Com:  0.328D-01-0.543D-01-0.107D-01 0.114D+00 0.980D-01 0.148D+00
 Coeff-Com:  0.672D+00
 Coeff-En:   0.000D+00 0.000D+00 0.000D+00 0.000D+00 0.000D+00 0.925D-01
 Coeff-En:   0.907D+00
 Coeff:      0.303D-01-0.502D-01-0.994D-02 0.106D+00 0.906D-01 0.144D+00
 Coeff:      0.689D+00
 Gap=     0.134 Goal=   None    Shift=    0.000
 Gap=     0.173 Goal=   None    Shift=    0.000
 RMSDP=3.88D-04 MaxDP=2.31D-02 DE=-1.73D-01 OVMax= 2.99D-02

 Cycle   8  Pass 1  IDiag  1:
 Density matrix breaks symmetry, PCut= 1.00D-04
 Density has only Abelian symmetry.
 E= -2695.84089838452     Delta-E=       -0.007996824059 Rises=F Damp=F
 DIIS: error= 3.12D-03 at cycle   8 NSaved=   8.
 NSaved= 8 IEnMin= 8 EnMin= -2695.84089838452     IErMin= 8 ErrMin= 3.12D-03
 ErrMax= 3.12D-03  0.00D+00 EMaxC= 1.00D-01 BMatC= 1.42D-02 BMatP= 9.81D-02
 IDIUse=3 WtCom= 9.69D-01 WtEn= 3.12D-02
 Coeff-Com:  0.895D-02-0.125D-01-0.383D-02-0.243D-03 0.568D-02-0.701D-02
 Coeff-Com:  0.302D+00 0.707D+00
 Coeff-En:   0.000D+00 0.000D+00 0.000D+00 0.000D+00 0.000D+00 0.000D+00
 Coeff-En:   0.210D+00 0.790D+00
 Coeff:      0.867D-02-0.121D-01-0.371D-02-0.236D-03 0.550D-02-0.680D-02
 Coeff:      0.299D+00 0.710D+00
 Gap=     0.139 Goal=   None    Shift=    0.000
 Gap=     0.175 Goal=   None    Shift=    0.000
 RMSDP=1.87D-04 MaxDP=1.60D-02 DE=-8.00D-03 OVMax= 1.39D-02

 Cycle   9  Pass 1  IDiag  1:
 Density matrix breaks symmetry, PCut= 1.00D-04
 Density has only Abelian symmetry.
 E= -2695.84250516650     Delta-E=       -0.001606781974 Rises=F Damp=F
 DIIS: error= 4.69D-04 at cycle   9 NSaved=   9.
 NSaved= 9 IEnMin= 9 EnMin= -2695.84250516650     IErMin= 9 ErrMin= 4.69D-04
 ErrMax= 4.69D-04  0.00D+00 EMaxC= 1.00D-01 BMatC= 1.74D-04 BMatP= 1.42D-02
 IDIUse=3 WtCom= 9.95D-01 WtEn= 4.69D-03
 Coeff-Com:  0.747D-03-0.374D-03 0.105D-02-0.564D-02-0.667D-02-0.412D-02
 Coeff-Com: -0.537D-01 0.844D-02 0.106D+01
 Coeff-En:   0.000D+00 0.000D+00 0.000D+00 0.000D+00 0.000D+00 0.000D+00
 Coeff-En:   0.000D+00 0.000D+00 0.100D+01
 Coeff:      0.744D-03-0.373D-03 0.105D-02-0.562D-02-0.664D-02-0.410D-02
 Coeff:     -0.535D-01 0.840D-02 0.106D+01
 Gap=     0.139 Goal=   None    Shift=    0.000
 Gap=     0.175 Goal=   None    Shift=    0.000
 RMSDP=3.50D-05 MaxDP=2.20D-03 DE=-1.61D-03 OVMax= 3.43D-03

 Cycle  10  Pass 1  IDiag  1:
 Density matrix breaks symmetry, PCut= 1.00D-04
 Density has only Abelian symmetry.
 E= -2695.84254135461     Delta-E=       -0.000036188110 Rises=F Damp=F
 DIIS: error= 1.31D-04 at cycle  10 NSaved=  10.
 NSaved=10 IEnMin=10 EnMin= -2695.84254135461     IErMin=10 ErrMin= 1.31D-04
 ErrMax= 1.31D-04  0.00D+00 EMaxC= 1.00D-01 BMatC= 1.71D-05 BMatP= 1.74D-04
 IDIUse=3 WtCom= 9.99D-01 WtEn= 1.31D-03
 Coeff-Com: -0.126D-02 0.236D-02 0.276D-03-0.138D-02-0.114D-02-0.293D-02
 Coeff-Com: -0.355D-01-0.581D-01 0.229D+00 0.869D+00
 Coeff-En:   0.000D+00 0.000D+00 0.000D+00 0.000D+00 0.000D+00 0.000D+00
 Coeff-En:   0.000D+00 0.000D+00 0.000D+00 0.100D+01
 Coeff:     -0.126D-02 0.236D-02 0.275D-03-0.137D-02-0.114D-02-0.293D-02
 Coeff:     -0.355D-01-0.580D-01 0.228D+00 0.869D+00
 Gap=     0.140 Goal=   None    Shift=    0.000
 Gap=     0.175 Goal=   None    Shift=    0.000
 RMSDP=1.74D-05 MaxDP=1.67D-03 DE=-3.62D-05 OVMax= 1.72D-03

 Cycle  11  Pass 1  IDiag  1:
 Density matrix breaks symmetry, PCut= 1.00D-04
 Density has only Abelian symmetry.
 E= -2695.84254528833     Delta-E=       -0.000003933726 Rises=F Damp=F
 DIIS: error= 8.54D-05 at cycle  11 NSaved=  11.
 NSaved=11 IEnMin=11 EnMin= -2695.84254528833     IErMin=11 ErrMin= 8.54D-05
 ErrMax= 8.54D-05  0.00D+00 EMaxC= 1.00D-01 BMatC= 8.96D-06 BMatP= 1.71D-05
 IDIUse=1 WtCom= 1.00D+00 WtEn= 0.00D+00
 Coeff-Com:  0.961D-04-0.138D-03-0.840D-04 0.322D-03 0.421D-04 0.966D-03
 Coeff-Com: -0.159D-02-0.167D-01-0.124D+00 0.222D+00 0.919D+00
 Coeff:      0.961D-04-0.138D-03-0.840D-04 0.322D-03 0.421D-04 0.966D-03
 Coeff:     -0.159D-02-0.167D-01-0.124D+00 0.222D+00 0.919D+00
 Gap=     0.140 Goal=   None    Shift=    0.000
 Gap=     0.175 Goal=   None    Shift=    0.000
 RMSDP=5.15D-06 MaxDP=2.56D-04 DE=-3.93D-06 OVMax= 7.25D-04

 Cycle  12  Pass 1  IDiag  1:
 E= -2695.84254665393     Delta-E=       -0.000001365596 Rises=F Damp=F
 DIIS: error= 7.74D-06 at cycle  12 NSaved=  12.
 NSaved=12 IEnMin=12 EnMin= -2695.84254665393     IErMin=12 ErrMin= 7.74D-06
 ErrMax= 7.74D-06  0.00D+00 EMaxC= 1.00D-01 BMatC= 5.08D-08 BMatP= 8.96D-06
 IDIUse=1 WtCom= 1.00D+00 WtEn= 0.00D+00
 Coeff-Com:  0.108D-03-0.176D-03-0.240D-04 0.121D-03 0.222D-03 0.306D-03
 Coeff-Com:  0.892D-03-0.148D-02-0.330D-01-0.497D-02 0.141D+00 0.897D+00
 Coeff:      0.108D-03-0.176D-03-0.240D-04 0.121D-03 0.222D-03 0.306D-03
 Coeff:      0.892D-03-0.148D-02-0.330D-01-0.497D-02 0.141D+00 0.897D+00
 Gap=     0.140 Goal=   None    Shift=    0.000
 Gap=     0.175 Goal=   None    Shift=    0.000
 RMSDP=1.01D-06 MaxDP=5.77D-05 DE=-1.37D-06 OVMax= 1.20D-04

 Cycle  13  Pass 1  IDiag  1:
 E= -2695.84254667985     Delta-E=       -0.000000025918 Rises=F Damp=F
 DIIS: error= 4.89D-06 at cycle  13 NSaved=  13.
 NSaved=13 IEnMin=13 EnMin= -2695.84254667985     IErMin=13 ErrMin= 4.89D-06
 ErrMax= 4.89D-06  0.00D+00 EMaxC= 1.00D-01 BMatC= 4.31D-08 BMatP= 5.08D-08
 IDIUse=1 WtCom= 1.00D+00 WtEn= 0.00D+00
 Coeff-Com:  0.150D-04-0.204D-04-0.486D-05 0.171D-04 0.136D-03-0.433D-04
 Coeff-Com:  0.701D-03 0.107D-02-0.385D-02-0.166D-01-0.213D-01 0.262D+00
 Coeff-Com:  0.778D+00
 Coeff:      0.150D-04-0.204D-04-0.486D-05 0.171D-04 0.136D-03-0.433D-04
 Coeff:      0.701D-03 0.107D-02-0.385D-02-0.166D-01-0.213D-01 0.262D+00
 Coeff:      0.778D+00
 Gap=     0.140 Goal=   None    Shift=    0.000
 Gap=     0.175 Goal=   None    Shift=    0.000
 RMSDP=3.37D-07 MaxDP=1.91D-05 DE=-2.59D-08 OVMax= 2.79D-05

 Cycle  14  Pass 1  IDiag  1:
 E= -2695.84254668608     Delta-E=       -0.000000006227 Rises=F Damp=F
 DIIS: error= 6.31D-07 at cycle  14 NSaved=  14.
 NSaved=14 IEnMin=14 EnMin= -2695.84254668608     IErMin=14 ErrMin= 6.31D-07
 ErrMax= 6.31D-07  0.00D+00 EMaxC= 1.00D-01 BMatC= 8.35D-10 BMatP= 4.31D-08
 IDIUse=1 WtCom= 1.00D+00 WtEn= 0.00D+00
 Coeff-Com:  0.117D-05-0.108D-05 0.126D-05-0.972D-05 0.143D-04-0.268D-04
 Coeff-Com:  0.732D-04 0.473D-03 0.289D-02-0.530D-02-0.176D-01-0.407D-01
 Coeff-Com:  0.125D+00 0.935D+00
 Coeff:      0.117D-05-0.108D-05 0.126D-05-0.972D-05 0.143D-04-0.268D-04
 Coeff:      0.732D-04 0.473D-03 0.289D-02-0.530D-02-0.176D-01-0.407D-01
 Coeff:      0.125D+00 0.935D+00
 Gap=     0.140 Goal=   None    Shift=    0.000
 Gap=     0.175 Goal=   None    Shift=    0.000
 RMSDP=1.45D-07 MaxDP=9.49D-06 DE=-6.23D-09 OVMax= 1.13D-05

 Cycle  15  Pass 1  IDiag  1:
 E= -2695.84254668647     Delta-E=       -0.000000000393 Rises=F Damp=F
 DIIS: error= 2.94D-07 at cycle  15 NSaved=  15.
 NSaved=15 IEnMin=15 EnMin= -2695.84254668647     IErMin=15 ErrMin= 2.94D-07
 ErrMax= 2.94D-07  0.00D+00 EMaxC= 1.00D-01 BMatC= 2.72D-10 BMatP= 8.35D-10
 IDIUse=1 WtCom= 1.00D+00 WtEn= 0.00D+00
 Coeff-Com: -0.470D-06 0.104D-05 0.414D-06-0.377D-05-0.748D-05-0.190D-06
 Coeff-Com: -0.358D-04-0.199D-05 0.634D-03-0.458D-04-0.167D-04-0.262D-01
 Coeff-Com: -0.376D-01 0.157D+00 0.906D+00
 Coeff:     -0.470D-06 0.104D-05 0.414D-06-0.377D-05-0.748D-05-0.190D-06
 Coeff:     -0.358D-04-0.199D-05 0.634D-03-0.458D-04-0.167D-04-0.262D-01
 Coeff:     -0.376D-01 0.157D+00 0.906D+00
 Gap=     0.140 Goal=   None    Shift=    0.000
 Gap=     0.175 Goal=   None    Shift=    0.000
 RMSDP=4.20D-08 MaxDP=3.20D-06 DE=-3.93D-10 OVMax= 3.20D-06

 Cycle  16  Pass 1  IDiag  1:
 E= -2695.84254668645     Delta-E=        0.000000000016 Rises=F Damp=F
 DIIS: error= 2.94D-07 at cycle  16 NSaved=  16.
 NSaved=16 IEnMin=15 EnMin= -2695.84254668647     IErMin=16 ErrMin= 2.94D-07
 ErrMax= 2.94D-07  0.00D+00 EMaxC= 1.00D-01 BMatC= 2.25D-10 BMatP= 2.72D-10
 IDIUse=1 WtCom= 1.00D+00 WtEn= 0.00D+00
 Coeff-Com:  0.717D-06-0.111D-05-0.888D-07 0.651D-06-0.258D-05 0.336D-05
 Coeff-Com: -0.127D-04-0.672D-04-0.309D-03 0.578D-03 0.239D-02 0.323D-02
 Coeff-Com: -0.162D-01-0.106D+00 0.323D-01 0.108D+01
 Coeff:      0.717D-06-0.111D-05-0.888D-07 0.651D-06-0.258D-05 0.336D-05
 Coeff:     -0.127D-04-0.672D-04-0.309D-03 0.578D-03 0.239D-02 0.323D-02
 Coeff:     -0.162D-01-0.106D+00 0.323D-01 0.108D+01
 Gap=     0.140 Goal=   None    Shift=    0.000
 Gap=     0.175 Goal=   None    Shift=    0.000
 RMSDP=1.80D-08 MaxDP=1.44D-06 DE= 1.64D-11 OVMax= 1.39D-06

 Cycle  17  Pass 1  IDiag  1:
 E= -2695.84254668642     Delta-E=        0.000000000033 Rises=F Damp=F
 DIIS: error= 2.94D-07 at cycle  17 NSaved=  17.
 NSaved=17 IEnMin=15 EnMin= -2695.84254668647     IErMin=17 ErrMin= 2.94D-07
 ErrMax= 2.94D-07  0.00D+00 EMaxC= 1.00D-01 BMatC= 2.21D-10 BMatP= 2.25D-10
 IDIUse=1 WtCom= 1.00D+00 WtEn= 0.00D+00
 Coeff-Com:  0.545D-06-0.732D-06-0.231D-07 0.243D-06 0.387D-06 0.299D-06
 Coeff-Com: -0.198D-06-0.141D-04-0.162D-03 0.191D-03 0.102D-02 0.213D-02
 Coeff-Com: -0.623D-03-0.243D-01-0.631D-01 0.856D-01 0.999D+00
 Coeff:      0.545D-06-0.732D-06-0.231D-07 0.243D-06 0.387D-06 0.299D-06
 Coeff:     -0.198D-06-0.141D-04-0.162D-03 0.191D-03 0.102D-02 0.213D-02
 Coeff:     -0.623D-03-0.243D-01-0.631D-01 0.856D-01 0.999D+00
 Gap=     0.140 Goal=   None    Shift=    0.000
 Gap=     0.175 Goal=   None    Shift=    0.000
 RMSDP=4.21D-09 MaxDP=3.16D-07 DE= 3.32D-11 OVMax= 4.72D-07

 SCF Done:  E(UPBE1PBE) =  -2695.84254669     A.U. after   17 cycles
            NFock= 17  Conv=0.42D-08     -V/T= 2.0009
 <Sx>= 0.0000 <Sy>= 0.0000 <Sz>= 0.5000 <S**2>= 0.7563 S= 0.5032
 <L.S>= 0.000000000000E+00
 KE= 2.693316627704D+03 PE=-7.791949600262D+03 EE= 1.723938726943D+03
 Annihilation of the first spin contaminant:
 S**2 before annihilation     0.7563,   after     0.7500
 Leave Link  502 at Wed Jan  8 19:11:49 2020, MaxMem=  6710886400 cpu:       709.4
 (Enter /usr/local/g09/l601.exe)
 Copying SCF densities to generalized density rwf, IOpCl= 1 IROHF=0.

 **********************************************************************

            Population analysis using the SCF density.

 **********************************************************************

 Orbital symmetries:
 Alpha Orbitals:
       Occupied  (A) (?A) (?A) (?A) (A) (A) (E) (E) (?A) (?A) (?A)
                 (A) (?A) (?A) (?A) (?A) (?A) (?A) (?A) (?A) (?A)
                 (A) (A) (E) (E) (A) (E) (E) (A) (E) (E) (A) (E)
                 (E) (A) (A) (E) (E) (E) (E) (A) (E) (E) (E) (E)
                 (A)
       Virtual   (A) (E) (E) (A) (E) (E) (A) (E) (E) (A) (A) (E)
                 (E) (E) (E) (A) (E) (E) (E) (E) (A) (A) (E) (E)
                 (A) (E) (E) (A) (A) (E) (E) (A) (E) (E) (A) (E)
                 (E) (A) (A) (E) (E) (E) (E) (A) (E) (E) (A) (A)
                 (E) (E) (E) (E) (E) (E) (A) (A) (E) (E) (E) (E)
                 (A) (A) (E) (E) (A) (E) (E) (A) (E) (E) (A) (E)
                 (E) (E) (E) (A) (E) (E) (E) (E) (A) (A) (A) (E)
                 (E) (A) (E) (E) (A) (E) (E) (E) (E) (E) (E) (A)
                 (A) (E) (E) (A) (E) (E) (A) (A) (E) (E) (A) (A)
                 (E) (E) (E) (E) (A) (A) (E) (E) (A) (E) (E) (A)
                 (E) (E) (E) (E) (A) (E) (E) (A) (A) (E) (E) (E)
                 (E) (A) (E) (E) (A) (E) (E) (A) (E) (E) (A) (A)
                 (E) (E) (E) (E) (E) (E) (A) (A) (E) (E) (A) (E)
                 (E) (A) (E) (E) (A) (A) (E) (E) (E) (E) (E) (E)
                 (A) (E) (E) (A) (E) (E) (A) (E) (E) (A) (E) (E)
                 (A) (E) (E) (A) (A) (E) (E) (A) (E) (E) (E) (E)
                 (A) (A) (E) (E) (E) (E) (A) (A) (A) (E) (E) (A)
                 (E) (E) (A) (E) (E) (E) (E) (A) (A)
 Beta  Orbitals:
       Occupied  (A) (?A) (?A) (?A) (A) (A) (E) (E) (?A) (?A) (?A)
                 (A) (?A) (?A) (?A) (?A) (?A) (?A) (?A) (?A) (?A)
                 (A) (E) (E) (A) (A) (E) (E) (A) (E) (E) (A) (E)
                 (E) (A) (A) (E) (E) (E) (E) (A) (E) (E) (E) (E)
       Virtual   (A) (A) (E) (E) (A) (E) (E) (A) (E) (E) (A) (E)
                 (E) (A) (E) (E) (E) (E) (A) (E) (E) (A) (A) (E)
                 (E) (A) (E) (E) (A) (A) (E) (E) (A) (E) (E) (A)
                 (E) (E) (A) (A) (E) (E) (E) (E) (A) (E) (E) (A)
                 (A) (E) (E) (E) (E) (E) (E) (A) (A) (E) (E) (E)
                 (E) (A) (A) (E) (E) (A) (E) (E) (A) (E) (E) (A)
                 (E) (E) (E) (E) (A) (E) (E) (E) (E) (A) (A) (A)
                 (E) (E) (A) (E) (E) (A) (E) (E) (E) (E) (E) (E)
                 (A) (A) (E) (E) (A) (E) (E) (A) (A) (E) (E) (A)
                 (A) (E) (E) (E) (E) (A) (A) (E) (E) (A) (E) (E)
                 (A) (E) (E) (E) (E) (A) (E) (E) (A) (A) (E) (E)
                 (E) (E) (A) (E) (E) (A) (E) (E) (A) (E) (E) (A)
                 (A) (E) (E) (E) (E) (E) (E) (A) (A) (E) (E) (A)
                 (E) (E) (A) (E) (E) (A) (A) (E) (E) (E) (E) (E)
                 (E) (A) (E) (E) (A) (E) (E) (A) (E) (E) (A) (E)
                 (E) (A) (E) (E) (A) (A) (E) (E) (A) (E) (E) (E)
                 (E) (A) (A) (E) (E) (E) (E) (A) (A) (A) (E) (E)
                 (A) (E) (E) (A) (E) (E) (E) (E) (A) (A)
 Unable to determine electronic state:  an orbital has unidentified symmetry.
 Alpha  occ. eigenvalues -- -323.33225 -77.21995 -77.21995 -77.21995 -38.94410
 Alpha  occ. eigenvalues --  -34.10997 -34.10913 -34.10913  -6.62343  -6.62343
 Alpha  occ. eigenvalues --   -6.62342  -6.61532  -4.75898  -4.75898  -4.75898
 Alpha  occ. eigenvalues --   -4.75870  -4.75870  -4.75870  -4.75505  -4.75505
 Alpha  occ. eigenvalues --   -4.75505  -4.35938  -2.83704  -2.83517  -2.83517
 Alpha  occ. eigenvalues --   -0.70824  -0.69758  -0.69758  -0.48588  -0.46061
 Alpha  occ. eigenvalues --   -0.46061  -0.45694  -0.45009  -0.45009  -0.44633
 Alpha  occ. eigenvalues --   -0.37362  -0.34780  -0.34780  -0.31282  -0.31282
 Alpha  occ. eigenvalues --   -0.30745  -0.27186  -0.27186  -0.21760  -0.21760
 Alpha  occ. eigenvalues --   -0.14513
 Alpha virt. eigenvalues --   -0.00529   0.01948   0.01948   0.02236   0.03220
 Alpha virt. eigenvalues --    0.03220   0.04624   0.05324   0.05324   0.08978
 Alpha virt. eigenvalues --    0.11248   0.11358   0.11358   0.13606   0.13606
 Alpha virt. eigenvalues --    0.15739   0.15813   0.15813   0.16511   0.16511
 Alpha virt. eigenvalues --    0.16813   0.19473   0.19746   0.19746   0.20283
 Alpha virt. eigenvalues --    0.22542   0.22542   0.27664   0.28875   0.29014
 Alpha virt. eigenvalues --    0.29015   0.33126   0.35522   0.35522   0.37622
 Alpha virt. eigenvalues --    0.38366   0.38366   0.39452   0.41244   0.41629
 Alpha virt. eigenvalues --    0.41629   0.43410   0.43410   0.43576   0.44502
 Alpha virt. eigenvalues --    0.44502   0.46800   0.49007   0.49090   0.49090
 Alpha virt. eigenvalues --    0.55035   0.55035   0.56854   0.56854   0.58394
 Alpha virt. eigenvalues --    0.61739   0.63363   0.63363   0.65604   0.65604
 Alpha virt. eigenvalues --    0.67519   0.69818   0.71330   0.71330   0.71954
 Alpha virt. eigenvalues --    0.72889   0.72889   0.80461   0.88008   0.88008
 Alpha virt. eigenvalues --    0.97812   1.00792   1.00792   1.04299   1.04299
 Alpha virt. eigenvalues --    1.08091   1.09154   1.09154   1.12390   1.12390
 Alpha virt. eigenvalues --    1.17495   1.18461   1.18535   1.21390   1.21390
 Alpha virt. eigenvalues --    1.22308   1.22927   1.22927   1.28697   1.29151
 Alpha virt. eigenvalues --    1.29151   1.32306   1.32306   1.34129   1.34129
 Alpha virt. eigenvalues --    1.34569   1.38972   1.39189   1.39189   1.41076
 Alpha virt. eigenvalues --    1.41544   1.41544   1.43203   1.45246   1.46361
 Alpha virt. eigenvalues --    1.46361   1.49754   1.55153   1.55654   1.55654
 Alpha virt. eigenvalues --    1.57286   1.57287   1.61629   1.63375   1.66955
 Alpha virt. eigenvalues --    1.66955   1.67544   1.67558   1.67558   1.69397
 Alpha virt. eigenvalues --    1.75585   1.75585   1.84963   1.84963   1.86857
 Alpha virt. eigenvalues --    1.87603   1.87603   1.91740   1.92770   1.94273
 Alpha virt. eigenvalues --    1.94273   1.95689   1.95689   1.98412   1.98664
 Alpha virt. eigenvalues --    1.98664   1.99840   2.02141   2.02141   2.04792
 Alpha virt. eigenvalues --    2.07296   2.07296   2.11069   2.12657   2.12683
 Alpha virt. eigenvalues --    2.12683   2.18064   2.18064   2.19552   2.19552
 Alpha virt. eigenvalues --    2.19844   2.23090   2.31592   2.31592   2.43443
 Alpha virt. eigenvalues --    2.51666   2.51666   2.53529   2.54742   2.54742
 Alpha virt. eigenvalues --    2.55882   2.56906   2.58420   2.58420   2.61639
 Alpha virt. eigenvalues --    2.61639   2.68410   2.68410   2.71883   2.74854
 Alpha virt. eigenvalues --    2.74854   2.76267   2.82016   2.82016   2.92187
 Alpha virt. eigenvalues --    2.94478   2.94478   2.96299   2.96675   2.96675
 Alpha virt. eigenvalues --    3.02904   3.21958   3.21958   3.22667   3.54631
 Alpha virt. eigenvalues --    3.59277   3.59277   3.68777   4.02143   4.02143
 Alpha virt. eigenvalues --    4.09687   4.09687   4.19040   5.82786   5.85199
 Alpha virt. eigenvalues --    5.85199   5.88249   5.88249   5.88633   5.95479
 Alpha virt. eigenvalues --    7.40939   7.41837   7.41837   7.45990   7.47049
 Alpha virt. eigenvalues --    7.47050   7.65048   7.66231   7.66231  14.71439
 Alpha virt. eigenvalues --   14.71439  14.72299  15.12338
  Beta  occ. eigenvalues -- -323.33145 -77.21996 -77.21996 -77.21996 -38.94499
  Beta  occ. eigenvalues --  -34.11017 -34.10974 -34.10974  -6.62339  -6.62339
  Beta  occ. eigenvalues --   -6.62339  -6.60901  -4.75901  -4.75901  -4.75901
  Beta  occ. eigenvalues --   -4.75866  -4.75866  -4.75866  -4.75497  -4.75497
  Beta  occ. eigenvalues --   -4.75497  -4.36041  -2.83738  -2.83738  -2.83631
  Beta  occ. eigenvalues --   -0.70644  -0.69645  -0.69645  -0.46372  -0.45966
  Beta  occ. eigenvalues --   -0.45966  -0.45178  -0.44815  -0.44815  -0.44553
  Beta  occ. eigenvalues --   -0.36741  -0.34700  -0.34700  -0.30870  -0.30870
  Beta  occ. eigenvalues --   -0.29590  -0.26749  -0.26749  -0.21565  -0.21565
  Beta virt. eigenvalues --   -0.04052  -0.00384   0.02193   0.02193   0.02587
  Beta virt. eigenvalues --    0.03359   0.03359   0.05315   0.05466   0.05466
  Beta virt. eigenvalues --    0.09566   0.11669   0.11669   0.11708   0.13797
  Beta virt. eigenvalues --    0.13797   0.15985   0.15985   0.16074   0.16654
  Beta virt. eigenvalues --    0.16654   0.17716   0.19851   0.20013   0.20014
  Beta virt. eigenvalues --    0.21055   0.23124   0.23124   0.28269   0.29088
  Beta virt. eigenvalues --    0.29323   0.29323   0.34412   0.35940   0.35940
  Beta virt. eigenvalues --    0.37897   0.38459   0.38459   0.39709   0.41673
  Beta virt. eigenvalues --    0.42236   0.42236   0.43714   0.43715   0.43999
  Beta virt. eigenvalues --    0.44759   0.44760   0.47038   0.49415   0.49746
  Beta virt. eigenvalues --    0.49746   0.55328   0.55328   0.57292   0.57293
  Beta virt. eigenvalues --    0.59909   0.63015   0.64101   0.64101   0.66159
  Beta virt. eigenvalues --    0.66159   0.68674   0.70167   0.71890   0.71890
  Beta virt. eigenvalues --    0.72917   0.73230   0.73230   0.81061   0.89085
  Beta virt. eigenvalues --    0.89085   0.99064   1.01634   1.01634   1.04705
  Beta virt. eigenvalues --    1.04705   1.08200   1.09330   1.09330   1.12651
  Beta virt. eigenvalues --    1.12651   1.18091   1.18697   1.19041   1.21611
  Beta virt. eigenvalues --    1.21611   1.22673   1.23146   1.23146   1.28885
  Beta virt. eigenvalues --    1.29524   1.29524   1.32635   1.32635   1.34315
  Beta virt. eigenvalues --    1.34315   1.35023   1.39235   1.39334   1.39334
  Beta virt. eigenvalues --    1.41192   1.41632   1.41632   1.44211   1.46091
  Beta virt. eigenvalues --    1.46545   1.46545   1.50691   1.55278   1.55883
  Beta virt. eigenvalues --    1.55883   1.58074   1.58074   1.61765   1.64047
  Beta virt. eigenvalues --    1.67021   1.67021   1.67657   1.67683   1.67683
  Beta virt. eigenvalues --    1.69835   1.76938   1.76938   1.85278   1.85278
  Beta virt. eigenvalues --    1.87012   1.88201   1.88201   1.93320   1.93840
  Beta virt. eigenvalues --    1.95014   1.95014   1.96515   1.96515   1.98684
  Beta virt. eigenvalues --    1.98911   1.98911   2.00128   2.03497   2.03497
  Beta virt. eigenvalues --    2.05814   2.08105   2.08105   2.11591   2.12981
  Beta virt. eigenvalues --    2.13133   2.13133   2.18532   2.18532   2.20017
  Beta virt. eigenvalues --    2.20017   2.20288   2.25328   2.33049   2.33049
  Beta virt. eigenvalues --    2.44540   2.52145   2.52145   2.53718   2.54920
  Beta virt. eigenvalues --    2.54920   2.56042   2.57076   2.58622   2.58622
  Beta virt. eigenvalues --    2.62128   2.62128   2.68953   2.68953   2.72615
  Beta virt. eigenvalues --    2.75415   2.75416   2.76534   2.82860   2.82860
  Beta virt. eigenvalues --    2.92527   2.94635   2.94635   2.96438   2.96822
  Beta virt. eigenvalues --    2.96822   3.03616   3.22467   3.22467   3.23270
  Beta virt. eigenvalues --    3.55734   3.60083   3.60083   3.69419   4.02525
  Beta virt. eigenvalues --    4.02525   4.09961   4.09962   4.20098   5.82695
  Beta virt. eigenvalues --    5.85091   5.85091   5.88142   5.88142   5.88548
  Beta virt. eigenvalues --    5.95387   7.40944   7.41879   7.41879   7.46015
  Beta virt. eigenvalues --    7.47065   7.47065   7.65131   7.66273   7.66273
  Beta virt. eigenvalues --   14.71466  14.71466  14.72324  15.13143
          Condensed to atoms (all electrons):
               1          2          3          4          5          6
     1  Cu  28.264417   0.279079  -0.025900  -0.006887  -0.018744   0.279079
     2  P    0.279079  13.887089   0.360663   0.379096   0.372668  -0.042305
     3  H   -0.025900   0.360663   0.606411  -0.021882  -0.015663  -0.008516
     4  H   -0.006887   0.379096  -0.021882   0.557234  -0.016312   0.001500
     5  H   -0.018744   0.372668  -0.015663  -0.016312   0.577318   0.001936
     6  P    0.279079  -0.042305  -0.008516   0.001500   0.001936  13.887089
     7  H   -0.006887   0.002704  -0.000151   0.000044  -0.000011   0.379096
     8  H   -0.018744  -0.006856   0.001140   0.000146  -0.000013   0.372668
     9  H   -0.025900  -0.000122   0.000900  -0.000115   0.000006   0.360663
    10  P    0.279079  -0.042305  -0.000122   0.002704  -0.006856  -0.042305
    11  H   -0.018744   0.001936   0.000006  -0.000011  -0.000013  -0.006856
    12  H   -0.025900  -0.008516   0.000900  -0.000151   0.001140  -0.000122
    13  H   -0.006887   0.001500  -0.000115   0.000044   0.000146   0.002704
    14  B    0.050496  -0.080119   0.010540  -0.020902   0.004214  -0.080119
    15  H    0.000146  -0.011522   0.000048   0.001495   0.000165   0.006103
    16  H    0.000146   0.001637  -0.000180   0.001185  -0.000072  -0.011522
    17  H    0.000146   0.006103  -0.000079   0.000005  -0.000088   0.001637
               7          8          9         10         11         12
     1  Cu  -0.006887  -0.018744  -0.025900   0.279079  -0.018744  -0.025900
     2  P    0.002704  -0.006856  -0.000122  -0.042305   0.001936  -0.008516
     3  H   -0.000151   0.001140   0.000900  -0.000122   0.000006   0.000900
     4  H    0.000044   0.000146  -0.000115   0.002704  -0.000011  -0.000151
     5  H   -0.000011  -0.000013   0.000006  -0.006856  -0.000013   0.001140
     6  P    0.379096   0.372668   0.360663  -0.042305  -0.006856  -0.000122
     7  H    0.557234  -0.016312  -0.021882   0.001500   0.000146  -0.000115
     8  H   -0.016312   0.577318  -0.015663   0.001936  -0.000013   0.000006
     9  H   -0.021882  -0.015663   0.606411  -0.008516   0.001140   0.000900
    10  P    0.001500   0.001936  -0.008516  13.887089   0.372668   0.360663
    11  H    0.000146  -0.000013   0.001140   0.372668   0.577318  -0.015663
    12  H   -0.000115   0.000006   0.000900   0.360663  -0.015663   0.606411
    13  H    0.000044  -0.000011  -0.000151   0.379096  -0.016312  -0.021882
    14  B   -0.020902   0.004214   0.010540  -0.080119   0.004214   0.010540
    15  H    0.000005  -0.000088  -0.000079   0.001637  -0.000072  -0.000180
    16  H    0.001495   0.000165   0.000048   0.006103  -0.000088  -0.000079
    17  H    0.001185  -0.000072  -0.000180  -0.011522   0.000165   0.000048
              13         14         15         16         17
     1  Cu  -0.006887   0.050496   0.000146   0.000146   0.000146
     2  P    0.001500  -0.080119  -0.011522   0.001637   0.006103
     3  H   -0.000115   0.010540   0.000048  -0.000180  -0.000079
     4  H    0.000044  -0.020902   0.001495   0.001185   0.000005
     5  H    0.000146   0.004214   0.000165  -0.000072  -0.000088
     6  P    0.002704  -0.080119   0.006103  -0.011522   0.001637
     7  H    0.000044  -0.020902   0.000005   0.001495   0.001185
     8  H   -0.000011   0.004214  -0.000088   0.000165  -0.000072
     9  H   -0.000151   0.010540  -0.000079   0.000048  -0.000180
    10  P    0.379096  -0.080119   0.001637   0.006103  -0.011522
    11  H   -0.016312   0.004214  -0.000072  -0.000088   0.000165
    12  H   -0.021882   0.010540  -0.000180  -0.000079   0.000048
    13  H    0.557234  -0.020902   0.001185   0.000005   0.001495
    14  B   -0.020902   4.572917   0.406876   0.406876   0.406876
    15  H    0.001185   0.406876   0.688422  -0.037147  -0.037147
    16  H    0.000005   0.406876  -0.037147   0.688422  -0.037147
    17  H    0.001495   0.406876  -0.037147  -0.037147   0.688422
          Atomic-Atomic Spin Densities.
               1          2          3          4          5          6
     1  Cu   0.079093   0.018647  -0.009885   0.000031  -0.000870   0.018647
     2  P    0.018647   0.037249  -0.011427   0.003657  -0.001155   0.017683
     3  H   -0.009885  -0.011427   0.032628  -0.006821   0.001794  -0.005358
     4  H    0.000031   0.003657  -0.006821   0.020805  -0.001754   0.001699
     5  H   -0.000870  -0.001155   0.001794  -0.001754   0.000401  -0.000252
     6  P    0.018647   0.017683  -0.005358   0.001699  -0.000252   0.037249
     7  H    0.000031   0.000786  -0.000142   0.000081  -0.000005   0.003657
     8  H   -0.000870  -0.000912   0.000496  -0.000192   0.000007  -0.001155
     9  H   -0.009885  -0.002399   0.000899  -0.000101   0.000024  -0.011427
    10  P    0.018647   0.017683  -0.002399   0.000786  -0.000912   0.017683
    11  H   -0.000870  -0.000252   0.000024  -0.000005   0.000007  -0.000912
    12  H   -0.009885  -0.005358   0.000899  -0.000142   0.000496  -0.002399
    13  H    0.000031   0.001699  -0.000101   0.000081  -0.000192   0.000786
    14  B    0.075929  -0.053238   0.008733  -0.017581   0.003088  -0.053238
    15  H    0.002504   0.001571  -0.000202   0.001431  -0.000167   0.000994
    16  H    0.002504   0.001410  -0.000138   0.000803  -0.000043   0.001571
    17  H    0.002504   0.000994  -0.000048   0.000209  -0.000032   0.001410
               7          8          9         10         11         12
     1  Cu   0.000031  -0.000870  -0.009885   0.018647  -0.000870  -0.009885
     2  P    0.000786  -0.000912  -0.002399   0.017683  -0.000252  -0.005358
     3  H   -0.000142   0.000496   0.000899  -0.002399   0.000024   0.000899
     4  H    0.000081  -0.000192  -0.000101   0.000786  -0.000005  -0.000142
     5  H   -0.000005   0.000007   0.000024  -0.000912   0.000007   0.000496
     6  P    0.003657  -0.001155  -0.011427   0.017683  -0.000912  -0.002399
     7  H    0.020805  -0.001754  -0.006821   0.001699  -0.000192  -0.000101
     8  H   -0.001754   0.000401   0.001794  -0.000252   0.000007   0.000024
     9  H   -0.006821   0.001794   0.032628  -0.005358   0.000496   0.000899
    10  P    0.001699  -0.000252  -0.005358   0.037249  -0.001155  -0.011427
    11  H   -0.000192   0.000007   0.000496  -0.001155   0.000401   0.001794
    12  H   -0.000101   0.000024   0.000899  -0.011427   0.001794   0.032628
    13  H    0.000081  -0.000005  -0.000142   0.003657  -0.001754  -0.006821
    14  B   -0.017581   0.003088   0.008733  -0.053238   0.003088   0.008733
    15  H    0.000209  -0.000032  -0.000048   0.001410  -0.000043  -0.000138
    16  H    0.001431  -0.000167  -0.000202   0.000994  -0.000032  -0.000048
    17  H    0.000803  -0.000043  -0.000138   0.001571  -0.000167  -0.000202
              13         14         15         16         17
     1  Cu   0.000031   0.075929   0.002504   0.002504   0.002504
     2  P    0.001699  -0.053238   0.001571   0.001410   0.000994
     3  H   -0.000101   0.008733  -0.000202  -0.000138  -0.000048
     4  H    0.000081  -0.017581   0.001431   0.000803   0.000209
     5  H   -0.000192   0.003088  -0.000167  -0.000043  -0.000032
     6  P    0.000786  -0.053238   0.000994   0.001571   0.001410
     7  H    0.000081  -0.017581   0.000209   0.001431   0.000803
     8  H   -0.000005   0.003088  -0.000032  -0.000167  -0.000043
     9  H   -0.000142   0.008733  -0.000048  -0.000202  -0.000138
    10  P    0.003657  -0.053238   0.001410   0.000994   0.001571
    11  H   -0.001754   0.003088  -0.000043  -0.000032  -0.000167
    12  H   -0.006821   0.008733  -0.000138  -0.000048  -0.000202
    13  H    0.020805  -0.017581   0.000803   0.000209   0.001431
    14  B   -0.017581   0.901401  -0.025786  -0.025786  -0.025786
    15  H    0.000803  -0.025786  -0.005264   0.006993   0.006993
    16  H    0.000209  -0.025786   0.006993  -0.005264   0.006993
    17  H    0.001431  -0.025786   0.006993   0.006993  -0.005264
 Mulliken charges and spin densities:
               1          2
     1  Cu   0.002007   0.186299
     2  P   -0.100731   0.026640
     3  H    0.092000   0.008950
     4  H    0.122808   0.002987
     5  H    0.100181   0.000436
     6  P   -0.100731   0.026640
     7  H    0.122808   0.002987
     8  H    0.100181   0.000436
     9  H    0.092000   0.008950
    10  P   -0.100731   0.026640
    11  H    0.100181   0.000436
    12  H    0.092000   0.008950
    13  H    0.122808   0.002987
    14  B   -0.585238   0.722974
    15  H   -0.019848  -0.008770
    16  H   -0.019848  -0.008770
    17  H   -0.019848  -0.008770
 Sum of Mulliken charges =   0.00000   1.00000
 Mulliken charges and spin densities with hydrogens summed into heavy atoms:
               1          2
     1  Cu   0.002007   0.186299
     2  P    0.214258   0.039012
     6  P    0.214258   0.039012
    10  P    0.214258   0.039012
    14  B   -0.644782   0.696663
 Electronic spatial extent (au):  <R**2>=           1329.6188
 Charge=              0.0000 electrons
 Dipole moment (field-independent basis, Debye):
    X=              0.0000    Y=              0.0000    Z=             -7.0504  Tot=              7.0504
 Quadrupole moment (field-independent basis, Debye-Ang):
   XX=            -58.2755   YY=            -58.2755   ZZ=            -79.5791
   XY=              0.0000   XZ=              0.0000   YZ=              0.0000
 Traceless Quadrupole moment (field-independent basis, Debye-Ang):
   XX=              7.1012   YY=              7.1012   ZZ=            -14.2024
   XY=              0.0000   XZ=              0.0000   YZ=              0.0000
 Octapole moment (field-independent basis, Debye-Ang**2):
  XXX=             -1.2486  YYY=             -0.6595  ZZZ=            -55.3397  XYY=              1.2486
  XXY=              0.6595  XXZ=             -4.8928  XZZ=              0.0000  YZZ=              0.0000
  YYZ=             -4.8928  XYZ=              0.0000
 Hexadecapole moment (field-independent basis, Debye-Ang**3):
 XXXX=           -710.3988 YYYY=           -710.3988 ZZZZ=           -595.3260 XXXY=              0.0000
 XXXZ=             -4.5392 YYYX=              0.0000 YYYZ=             12.2446 ZZZX=              0.0000
 ZZZY=              0.0000 XXYY=           -236.7996 XXZZ=           -211.6912 YYZZ=           -211.6912
 XXYZ=            -12.2446 YYXZ=              4.5392 ZZXY=              0.0000
 N-N= 6.788516989284D+02 E-N=-7.791949603655D+03  KE= 2.693316627704D+03
                          Isotropic Fermi Contact Couplings
        Atom                 a.u.       MegaHertz       Gauss      10(-4) cm-1
     1  Cu(63)             0.87654    1039.67013     370.98014     346.79663
     2  P(31)             -0.00367      -6.65133      -2.37336      -2.21864
     3  H(1)               0.00539      24.07421       8.59028       8.03029
     4  H(1)               0.00328      14.65515       5.22932       4.88843
     5  H(1)              -0.00005      -0.20285      -0.07238      -0.06766
     6  P(31)             -0.00367      -6.65133      -2.37336      -2.21864
     7  H(1)               0.00328      14.65515       5.22932       4.88843
     8  H(1)              -0.00005      -0.20285      -0.07238      -0.06766
     9  H(1)               0.00539      24.07421       8.59028       8.03029
    10  P(31)             -0.00367      -6.65133      -2.37336      -2.21864
    11  H(1)              -0.00005      -0.20285      -0.07238      -0.06766
    12  H(1)               0.00539      24.07421       8.59028       8.03029
    13  H(1)               0.00328      14.65515       5.22932       4.88843
    14  B(11)              0.03287      47.14495      16.82249      15.72586
    15  H(1)               0.00216       9.66612       3.44911       3.22427
    16  H(1)               0.00216       9.66612       3.44911       3.22427
    17  H(1)               0.00216       9.66612       3.44911       3.22427
 --------------------------------------------------------
       Center         ----  Spin Dipole Couplings  ----
                      3XX-RR        3YY-RR        3ZZ-RR
 --------------------------------------------------------
     1   Atom       -0.716821     -0.716821      1.433642
     2   Atom       -0.011634      0.045300     -0.033665
     3   Atom       -0.003268      0.003737     -0.000470
     4   Atom       -0.003658      0.005233     -0.001575
     5   Atom       -0.001573      0.002954     -0.001381
     6   Atom        0.023807      0.009858     -0.033665
     7   Atom        0.001146      0.000429     -0.001575
     8   Atom        0.004549     -0.003168     -0.001381
     9   Atom        0.001229     -0.000759     -0.000470
    10   Atom        0.038325     -0.004660     -0.033665
    11   Atom       -0.000904      0.002285     -0.001381
    12   Atom        0.002744     -0.002274     -0.000470
    13   Atom        0.004874     -0.003300     -0.001575
    14   Atom       -0.165311     -0.165311      0.330621
    15   Atom       -0.020137      0.011329      0.008808
    16   Atom        0.027039     -0.035847      0.008808
[...]
 ! D36   D(10,1,14,17)          34.1006         -DE/DX =    0.0                 !
 --------------------------------------------------------------------------------
 GradGradGradGradGradGradGradGradGradGradGradGradGradGradGradGradGradGrad

 Leave Link  103 at Wed Jan  8 19:36:46 2020, MaxMem=  6710886400 cpu:        30.2
 (Enter /usr/local/g09/l9999.exe)
 1\1\GINC-HNODE-IB-20\Freq\UPBE1PBE\def2TZVP\B1Cu1H12P3(2)\JZHANGBM\08-
 Jan-2020\0\\#P Geom=AllCheck Guess=TCheck SCRF=Check GenChk UPBE1PBE/d
 ef2TZVP Freq\\CuL3-BH3_p0\\0,2\Cu,0.,0.,0.4306820631\P,-2.2506685027,-
 0.0422954941,0.5008550272\H,-3.1599707416,-0.1977046671,1.5825325664\H
 ,-2.8250206773,-1.0225351891,-0.3346446299\H,-2.8788005397,1.081310592
 8,-0.0744768805\P,1.1619632237,-1.9279883518,0.5008550272\H,2.29805178
 87,-1.9352720782,-0.3346446299\H,0.5029578271,-3.0337696962,-0.0744768
 805\H,1.7512026349,-2.6377626039,1.5825325664\P,1.088705279,1.97028384
 59,0.5008550272\H,2.3758427126,1.9524591034,-0.0744768805\H,1.40876810
 67,2.835467271,1.5825325664\H,0.5269688886,2.9578072673,-0.3346446299\
 B,0.,0.,-1.9272833287\H,-1.0027438706,0.651787697,-2.111859427\H,-0.06
 30927682,-1.1942955139,-2.111859427\H,1.0658366388,0.5425078169,-2.111
 859427\\Version=EM64L-G09RevD.01\HF=-2695.960834\S2=0.755971\S2-1=0.\S
 2A=0.750028\RMSD=5.830e-09\RMSF=4.798e-07\ZeroPoint=0.1080252\Thermal=
 0.1223334\Dipole=0.,0.,1.7154806\DipoleDeriv=-0.0682537,-0.002447,0.00
 00057,0.0024603,-0.0682504,-0.0000079,0.000012,0.0000071,-0.2202934,1.
 1494062,0.0293976,-0.3547313,0.0397617,0.2042757,-0.025895,-0.1094674,
 -0.0167173,0.4206971,-0.4580255,-0.0275642,0.2154672,-0.0225854,-0.031
 8245,0.0136533,0.0780912,0.0071959,-0.0906455,-0.1716417,-0.0772864,0.
 0039802,-0.043879,-0.0469498,0.0143526,0.0018872,-0.0183607,-0.0531906
 ,-0.1702364,0.0815626,0.0040606,0.0280185,-0.0493855,-0.0047079,0.0033
 879,0.0229846,-0.0537937,0.4705073,-0.4317302,0.1998083,-0.4213665,0.8
 831753,-0.2942509,0.0692075,-0.0864368,0.4207013,-0.1305854,0.067587,-
 0.0144175,0.1009856,-0.0880039,-0.003733,0.0149516,0.0108073,-0.053195
 ,-0.0321482,0.051706,0.0020425,-0.0018289,-0.1874723,0.0058705,-0.0215
 952,-0.0085549,-0.0537965,-0.1600931,0.194596,-0.1195726,0.1995742,-0.
 3297593,0.1797774,-0.0452795,0.0640275,-0.0906494,0.4106139,0.3867802,
 0.1549449,0.397152,0.9430777,0.3201484,0.0402646,0.1031508,0.4206961,-
 0.1270422,-0.0529523,-0.0061158,-0.1064997,-0.0925716,-0.0011652,0.018
 2072,-0.0144264,-0.0537901,-0.1166645,-0.1745027,-0.0959109,-0.1695291
 ,-0.3731909,-0.1934345,-0.0328163,-0.0712263,-0.090646,-0.0256578,-0.0
 404058,0.0104408,-0.006998,-0.1929422,-0.0106116,-0.0168424,0.0075492,
 -0.0532003,0.0378104,0.0367255,-0.0000077,-0.0367315,0.0378014,0.00002
 46,-0.0000119,0.0000017,0.1341391,-0.2446296,0.075287,-0.0784094,0.102
 9418,-0.1606907,0.0662436,-0.1011692,0.0706748,-0.1943358,-0.1045001,-
 0.0220343,-0.01816,0.0056106,-0.3008198,-0.1010436,-0.0106141,-0.12295
 04,-0.194333,-0.2588547,-0.0947297,0.0965738,-0.0670771,-0.146469,0.03
 47889,0.1117884,0.0522791,-0.1943429\Polar=143.5089248,-0.0003528,143.
 5094395,-0.0006217,-0.0007075,136.9333062\PG=C03 [C3(B1Cu1),X(H12P3)]\
 NImag=0\\0.08814483,0.00000006,0.08814540,-0.00000014,-0.00000024,0.03
 645663,-0.05199591,-0.00072660,-0.00350700,0.28259363,-0.00055562,-0.0
 0552162,-0.00035953,-0.00122847,0.29852847,-0.00147797,0.00002069,-0.0
 0701612,0.00152843,0.00185077,0.27974535,0.00087857,-0.00028141,0.0023
 8103,-0.10043225,-0.01425390,0.09852541,0.09367497,-0.00008174,0.00019
 598,-0.00009925,-0.01116508,-0.02884733,0.01384297,0.01285242,0.027937
 06,0.00084495,-0.00018164,0.00147618,0.07585852,0.01337907,-0.11962119
 ,-0.08994187,-0.01560832,0.13479986,-0.00154454,-0.00244092,-0.0030643
 7,-0.05677343,-0.06748829,-0.05512172,0.00342932,0.00925251,0.00729429
 ,0.05396739,-0.00077302,0.00094191,0.00062821,-0.05093767,-0.11394000,
 -0.07505486,0.00143533,0.00180568,0.00094959,0.05643749,0.12258267,0.0
 0021127,0.00017962,0.00025237,-0.04458750,-0.07883730,-0.09193910,-0.0
 0590365,-0.01140231,-0.01011035,0.04657801,0.08385534,0.09599832,-0.00
 130392,0.00281808,-0.00221774,-0.06402263,0.08309650,-0.04006790,0.003
 96295,-0.01070021,0.00483941,0.00169147,-0.00616990,0.00322144,0.06049
 272,0.00048768,0.00120792,-0.00043301,0.06432512,-0.14214705,0.0594298
 4,0.00039992,-0.00189171,0.00139272,0.00590870,-0.01168466,0.00607543,
 -0.07083521,0.15414915,0.00033711,-0.00003728,0.00007945,-0.03400543,0
 .06389958,-0.05723615,-0.00684047,0.01298677,-0.00679402,0.00509529,-0
 .01001258,0.00536322,0.03479684,-0.06667449,0.05854775,-0.01769527,0.0
 2035880,0.00206477,-0.00639897,0.00472013,-0.00125145,0.00103595,0.000
 07225,-0.00009517,0.00058806,-0.00004013,0.00005016,-0.00184828,-0.000
 24453,-0.00019314,0.29348087,0.02053002,-0.03982215,-0.00285734,0.0040
 1779,-0.00120386,0.00115434,-0.00228228,-0.00009244,-0.00014173,-0.001
 35934,0.00002139,-0.00013044,0.00000020,-0.00005166,-0.00004874,0.0075
 1420,0.28764117,0.00072092,-0.00129024,-0.00701597,0.00194294,-0.00050
 232,0.00087854,0.00021451,0.00005159,-0.00006567,-0.00002244,0.0000509
 5,-0.00006380,-0.00008400,0.00025189,0.00000865,-0.00236698,0.00039828
 ,0.27974530,-0.00107142,0.00104626,0.00098824,-0.00044788,0.00065175,0
 .00037033,-0.00036554,-0.00000539,-0.00003237,0.00005961,0.00000893,0.
 00000691,-0.00031629,-0.00007325,-0.00002968,-0.15092832,-0.00342267,0
 .09256027,0.15430516,0.00271405,0.00046874,-0.00296802,0.00087525,-0.0
 0141123,-0.00010784,0.00027934,0.00003134,0.00011590,0.00010356,0.0000
 0022,0.00003512,0.00079725,0.00015142,0.00010480,0.01312795,-0.0197851
 4,-0.01020938,0.00149254,0.02224493,-0.00026115,0.00009307,0.00025229,
 0.00001875,-0.00008249,-0.00008067,-0.00002943,0.00002171,0.00003598,0
 .00008179,-0.00000640,0.00002391,0.00002303,0.00002508,0.00004537,0.09
 056884,0.00080474,-0.09193911,-0.09590985,-0.00158993,0.09599833,0.002
 01144,0.00142640,0.00148385,0.00086122,-0.00000326,0.00015568,-0.00003
 839,-0.00001969,-0.00003189,-0.00012146,-0.00010532,-0.00005666,-0.000
 00471,-0.00003911,-0.00004748,-0.05878050,-0.06129860,-0.03143382,-0.0
 0845373,-0.01176604,-0.00687220,0.06938994,-0.00090397,-0.00210726,-0.
 00170413,-0.00137197,-0.00007140,-0.00001614,0.00014537,0.00005625,0.0
 0001182,0.00035479,0.00001572,0.00003425,0.00004749,0.00005860,0.00007
 142,-0.08006998,-0.14738919,-0.06441478,0.00031257,-0.00153946,-0.0002
 4787,0.07597205,0.14525194,-0.00013624,0.00031061,0.00007946,-0.000166
 57,0.00000127,-0.00009560,-0.00000218,-0.00000679,0.00001276,0.0000470
 0,-0.00003042,0.00000790,0.00002389,0.00000692,0.00001883,-0.03833597,
 -0.06139939,-0.05723616,0.00612350,0.00941894,0.00536322,0.04034341,0.
 06347223,0.05854776,0.00020940,-0.00030460,-0.00110457,0.00114188,0.00
 022239,-0.00018230,-0.00028657,-0.00000472,0.00002517,0.00003242,-0.00
 006785,0.00001206,-0.00019978,0.00008915,0.00007731,-0.05775027,0.0358
 0750,-0.06125106,0.00683956,-0.00728361,0.01282652,-0.00488821,0.00558
 999,-0.00782664,0.05550202,-0.00010488,0.00086503,0.00211175,-0.002066
 41,-0.00046054,0.00035338,0.00045052,-0.00001188,-0.00005709,0.0001548
 7,0.00008731,-0.00001692,0.00036729,-0.00007233,-0.00004509,0.03889632
 ,-0.07152922,0.07840400,0.00053358,-0.00160456,0.00058844,-0.00551014,
 0.00695945,-0.01241741,-0.03489154,0.06610992,-0.00026512,0.00082259,0
 .00147615,0.00001115,-0.00026024,-0.00011734,-0.00004361,0.00001045,-0
 .00001435,0.00000003,-0.00003740,0.00001094,0.00017180,0.00001154,0.00
 003394,-0.04951587,0.05900585,-0.11962115,-0.00446951,0.00584225,-0.01
 011035,-0.00362584,0.00349469,-0.00679402,0.05848814,-0.07008775,0.134
 79983,-0.01658486,-0.01988898,0.00144233,-0.00628625,-0.00478518,-0.00
 140650,0.00073855,0.00001047,-0.00023095,-0.00183160,0.00014714,-0.000
 08081,0.00075724,0.00006329,0.00008439,0.00128099,0.00041624,-0.000373
 96,-0.00044293,0.00076410,0.00008788,-0.00060661,0.00071668,0.00013878
 ,-0.00076732,0.00124117,0.00017033,0.29560857,-0.01971775,-0.04093232,
 0.00321688,-0.00408284,-0.00131656,-0.00143148,0.00229927,-0.00005721,
 0.00012047,-0.00007636,-0.00002751,0.00002501,0.00143200,0.00003258,0.
 00014361,-0.00028610,-0.00888381,-0.00166095,-0.00055511,0.00105238,0.
 00010866,0.00096141,-0.00129332,-0.00014290,-0.00111336,0.00171082,-0.
 00001155,-0.00628582,0.28551357,0.00075710,0.00126979,-0.00701586,0.00
 162541,0.00050662,0.00087853,0.00039719,-0.00001881,-0.00011734,-0.000
 27856,-0.00026679,-0.00008067,-0.00009182,-0.00012675,-0.00009559,-0.0
 0053645,0.00193380,0.00087854,-0.00003290,-0.00004491,-0.00006380,-0.0
 0017614,-0.00019869,0.00000865,-0.00015194,0.00015998,-0.00006567,0.00
 083857,-0.00224903,0.27974534,-0.00085135,-0.00074876,0.00073381,-0.00
 039501,-0.00059451,0.00026014,-0.00030184,-0.00003023,-0.00007591,-0.0
 0027901,0.00005172,0.00001021,0.00003915,0.00001380,-0.00000595,-0.000
 43374,0.00062432,-0.00006386,0.00008945,-0.00023302,-0.00000133,0.0000
 4640,-0.00001798,-0.00003811,0.00008701,-0.00007297,0.00000571,-0.1864
 5138,0.00635918,0.07150170,0.19208013,-0.00307926,0.00075556,0.0021371
 0,-0.00083924,-0.00150492,-0.00005320,-0.00030836,0.00002972,-0.000154
 55,-0.00081877,0.00011414,-0.00003248,-0.00007280,0.00001475,-0.000024
 15,-0.00074439,0.00122356,0.00014290,0.00022709,-0.00019518,-0.0000661
 9,0.00006862,0.00000750,-0.00007683,0.00009209,-0.00006916,-0.00003353
 ,-0.01241221,-0.01971832,0.00498489,-0.00513685,0.02256174,-0.00020093
 ,-0.00027339,0.00007948,0.00005436,0.00019163,0.00000865,-0.00007771,-
 0.00004441,0.00003394,0.00010561,-0.00002670,0.00004537,0.00008559,0.0
 0000541,0.00001883,0.00008218,-0.00014489,-0.00009560,0.00000284,0.000
 05591,0.00000790,-0.00001794,0.00001723,0.00001883,0.00000697,0.000001
 51,0.00001276,0.07234137,-0.00250024,-0.05723617,-0.07514021,0.0032023
 2,0.05854777,0.00052386,0.00028648,-0.00127652,0.00114663,-0.00013615,
 -0.00006258,-0.00027359,-0.00000278,0.00003085,-0.00018650,-0.00009798
 ,0.00003352,-0.00002184,0.00001013,-0.00000479,-0.00085842,0.00091154,
 -0.00021488,0.00011127,-0.00010935,0.00000862,0.00009345,-0.00019799,0
 .00000039,0.00011249,-0.00022012,0.00003686,-0.03573680,-0.02618684,-0
 .03727433,0.00403211,0.01066028,0.01466711,0.03324100,0.00048615,0.000
 55072,-0.00201240,0.00221838,-0.00020312,-0.00021157,-0.00045801,-0.00
 002486,0.00003254,-0.00038270,-0.00014769,0.00001464,-0.00015493,0.000
 03969,0.00000528,-0.00137726,0.00153976,-0.00033457,0.00011338,0.00000
 846,0.00001891,0.00008014,-0.00036556,0.00008950,0.00023511,-0.0004109
 3,0.00005034,-0.02309803,-0.09354278,-0.09224701,-0.00043984,-0.001960
 87,-0.00056936,0.02203914,0.08837103,-0.00057984,-0.00064092,0.0014762
 1,-0.00007516,0.00015328,-0.00006567,-0.00006202,0.00000675,-0.0000143
 5,0.00011655,-0.00002991,0.00003598,0.00002618,0.00002171,0.00001276,0
 .00021980,0.00013978,-0.00011734,0.00003238,0.00001872,0.00001094,-0.0
 0009589,0.00014302,0.00003394,0.00001276,-0.00004299,-0.00001435,-0.02
 634263,-0.07238496,-0.11962116,-0.00121357,-0.00488741,-0.00679402,0.0
 3145371,0.08569613,0.13479983,0.00171197,-0.00110709,0.00207623,0.0007
 6904,-0.00006436,0.00005535,0.00003591,0.00006584,-0.00003241,-0.00003
 364,0.00004491,-0.00004644,-0.00012660,0.00010829,-0.00004984,-0.00050
 918,-0.00091064,-0.00009177,0.00006378,-0.00010115,-0.00003387,0.00034
 800,-0.00041372,-0.00007592,0.00005074,-0.00003900,-0.00008418,-0.0483
 6840,0.04608502,-0.03743854,-0.00822753,0.01189664,-0.01121879,-0.0024
 1638,0.00193969,-0.00282477,0.05655254,0.00056070,-0.00231483,0.002339
 86,0.00125485,-0.00015960,-0.00000604,-0.00015688,0.00008382,0.0000186
 8,-0.00004972,0.00009347,-0.00006763,-0.00035182,0.00002086,-0.0000255
 0,-0.00068714,-0.00134992,0.00037464,-0.00000653,-0.00000395,-0.000011
 58,0.00045677,-0.00051286,-0.00007811,0.00024573,-0.00038494,-0.000085
 98,0.06263565,-0.12234505,0.08526425,-0.00018196,-0.00176566,0.0005936
 3,-0.00587750,0.00765137,-0.00679184,-0.05793002,0.11999755,0.00005000
 ,-0.00027264,0.00025230,-0.00013804,0.00002177,-0.00006380,-0.00002068
 ,-0.00000199,0.00001094,0.00002696,-0.00002354,0.00002391,0.00005799,0
 .00003194,0.00000790,0.00006207,0.00005748,-0.00008067,-0.00003535,0.0
 0007403,0.00002391,-0.00003323,0.00000740,0.00004537,-0.00000408,-0.00
 003634,0.00003598,-0.04598133,0.07803256,-0.09193909,0.00365076,-0.005
 82756,0.00536322,-0.00692286,0.01081387,-0.01011034,0.04933182,-0.0822
 6542,0.09599830,-0.00228496,-0.00079043,-0.00000015,0.00303459,-0.0012
 0680,0.00078551,-0.00274266,0.00037431,0.00092249,0.00016552,-0.000121
 53,0.00049908,0.00005803,0.00022236,0.00006662,-0.00034782,-0.00116975
 ,0.00054630,0.00009114,-0.00002608,-0.00060488,0.00011528,-0.00044417,
 0.00014334,-0.00062935,0.00160991,-0.00103195,0.00137559,0.00174087,-0
 .00133154,-0.00049049,-0.00016043,-0.00020998,-0.00061596,-0.00083810,
 0.00010932,0.00021093,-0.00000916,0.00010563,0.35058619,0.00079007,-0.
 00228509,-0.00000004,-0.00078312,-0.00032620,-0.00108415,-0.00038972,0
 .00008400,0.00065893,-0.00001700,0.00014615,0.00041021,0.00047721,-0.0
 0026955,-0.00020399,-0.00074590,0.00305601,0.00122238,0.00007844,0.000
 22074,0.00022710,-0.00018932,-0.00032670,0.00015966,0.00084595,-0.0020
 2945,0.00046946,0.00216468,0.00133257,-0.00013806,0.00009438,0.0002790
 7,0.00004430,-0.00160215,-0.00204268,-0.00112837,0.00009530,0.00010089
 ,-0.00063738,-0.00000002,0.35058779,0.00000003,0.00000001,-0.01372573,
 0.00393942,-0.00005213,-0.00136081,-0.00005370,0.00009999,-0.00000764,
 -0.00127337,-0.00035456,0.00007032,-0.00118368,0.00027327,0.00004317,-
 0.00192450,0.00343762,-0.00136097,0.00094364,-0.00092545,0.00007035,0.
 00035516,-0.00116169,0.00004318,-0.00005983,-0.00009645,-0.00000762,-0
 .00201484,-0.00338519,-0.00136106,0.00082846,0.00088842,0.00004318,0.0
 0011348,-0.00000360,-0.00000757,0.00032975,0.00127993,0.00007045,-0.00
 000009,-0.00000077,0.08368673,-0.00011310,0.00036884,-0.00098997,-0.00
 244325,0.00073175,-0.00048025,0.00054956,-0.00037228,0.00036622,0.0004
 7050,0.00017808,-0.00000073,0.00057423,-0.00031071,0.00037004,-0.00019
 906,-0.00020640,0.00005040,0.00015557,-0.00017675,-0.00001874,0.000026
 75,0.00006678,-0.00001975,0.00015483,0.00001438,0.00004246,-0.00032705
 ,0.00101922,0.00071110,0.00022717,0.00010977,-0.00010603,0.00013137,-0
 .00035678,-0.00014358,-0.00005848,-0.00028442,-0.00007382,-0.15019489,
 0.07655877,-0.01991152,0.16038878,0.00013374,0.00001437,0.00087149,0.0
 0132740,-0.00042224,0.00037707,-0.00019585,0.00025576,-0.00020069,-0.0
 0008455,-0.00010514,0.00000622,-0.00038136,0.00019815,-0.00009034,-0.0
 0029084,-0.00036463,-0.00108561,-0.00011480,0.00011508,0.00010510,-0.0
 0002514,0.00028337,0.00013991,0.00017996,0.00002565,0.00029469,-0.0006
 0761,-0.00045332,0.00035700,-0.00004240,-0.00002524,-0.00019068,0.0001
 8752,0.00026898,0.00005443,0.00014948,0.00024993,0.00009722,0.07710454
 ,-0.08215576,0.01309523,-0.08546013,0.08419270,-0.00198738,0.00093672,
 -0.00236901,0.00095290,0.00068713,-0.00367787,-0.00023780,-0.00006025,
 0.00071282,0.00007911,-0.00000700,0.00039761,0.00016517,-0.00010171,0.
 00018378,0.00102180,-0.00212679,0.00042608,-0.00023369,0.00004235,-0.0
 0027837,0.00006108,0.00010495,-0.00010389,-0.00068535,0.00124921,-0.00
 049406,-0.00012195,0.00133994,-0.00066274,-0.00015988,-0.00010806,-0.0
 0013398,0.00008379,-0.00036076,0.00015643,0.00006895,-0.00025021,0.000
 24240,-0.03055371,0.01996621,-0.02206519,0.02490844,-0.01689656,0.0169
 3949,0.00020012,0.00004712,-0.00025976,-0.00024351,0.00065584,-0.00066
 471,0.00016128,-0.00017025,0.00002466,0.00011440,-0.00004966,-0.000047
 29,0.00006704,-0.00005006,0.00021815,-0.00003586,0.00006251,-0.0000864
 2,0.00007927,-0.00014133,-0.00000503,-0.00000750,0.00004550,-0.0001067
 8,0.00008321,-0.00007340,-0.00000931,-0.00053855,0.00009484,0.00091496
 ,0.00023724,0.00014667,-0.00011129,0.00014210,-0.00018731,-0.00027644,
 -0.00000104,0.00002438,-0.00008165,-0.03262757,-0.00922685,-0.00138496
 ,0.00236092,0.01502764,0.00282400,0.02923107,-0.00018793,-0.00029891,-
 0.00129305,-0.00097099,-0.00053685,0.00043733,0.00037405,0.00023907,-0
 .00015156,0.00038423,0.00007705,-0.00011254,-0.00020223,0.00013489,0.0
 0000351,0.00065816,-0.00282964,-0.00060444,-0.00040396,0.00028609,-0.0
 0000374,-0.00002515,0.00077988,0.00036564,0.00010303,0.00072212,0.0004
 1750,0.00001039,-0.00002515,0.00058645,0.00005475,0.00007287,-0.000087
 06,-0.00002173,0.00003838,-0.00011058,0.00008633,0.00027170,-0.0000687
 8,-0.00868093,-0.19972363,-0.02379127,-0.00061595,-0.00807120,-0.00300
 710,0.00973618,0.21535045,0.00018237,-0.00218946,-0.00236905,-0.001099
 45,-0.00077558,-0.00066274,0.00027053,0.00025294,0.00015643,0.00018221
 ,0.00018482,0.00024240,0.00017352,-0.00008443,-0.00013398,-0.00107152,
 0.00048167,-0.00367786,-0.00003349,0.00007201,0.00039761,0.00000550,0.
 00019390,0.00018378,0.00017108,-0.00017581,0.00071282,0.00133096,0.001
 94829,0.00042608,-0.00012143,0.00000043,-0.00010389,-0.00073918,-0.001
 21814,-0.00049406,0.00008017,-0.00022355,-0.00027837,-0.00201396,-0.03
 644338,-0.02206546,-0.00068809,0.00400747,0.00536325,0.00217863,0.0300
 1967,0.01693949,-0.00023510,-0.00006326,0.00124977,-0.00010793,0.00023
 822,-0.00096536,-0.00002620,-0.00007544,0.00023398,0.00025145,0.000059
 45,0.00010039,0.00020118,-0.00007557,0.00013104,-0.00059998,0.00076518
 ,-0.00004638,0.00023126,-0.00031676,0.00012110,0.00000869,0.00016854,-
 0.00011212,0.00030787,-0.00028942,0.00011892,-0.00181913,-0.00168773,0
 .00056667,0.00059185,0.00037119,-0.00026326,0.00057522,0.00018104,-0.0
 0035691,-0.00000173,0.00035719,0.00000575,-0.16570357,-0.06815072,0.02
 129655,-0.01170361,-0.00690748,0.00381461,0.00077728,-0.00029837,0.001
 19223,0.17725233,-0.00029841,0.00013643,0.00042165,0.00015378,-0.00045
 577,0.00049915,0.00009014,0.00020668,-0.00018411,0.00012140,0.00001921
 ,-0.00003632,-0.00016749,0.00010893,-0.00005285,-0.00086165,-0.0001803
 9,-0.00079432,0.00011713,-0.00003981,0.00001532,0.00001637,0.00019325,
 0.00018717,0.00025488,0.00009248,0.00009713,-0.00109209,-0.00104636,0.
 00022738,0.00030054,0.00018053,-0.00027530,0.00035746,0.00023010,-0.00
 021681,0.00009457,0.00036709,-0.00000248,-0.06760475,-0.06664740,0.010
 69630,0.00873611,0.00599334,-0.00140783,-0.01594196,-0.00648756,0.0039
 4921,0.07572398,0.06732914,0.00180499,0.00125264,-0.00236904,-0.002352
 75,0.00017850,0.00042608,0.00142453,-0.00003108,-0.00049406,0.00015351
 ,0.00018121,-0.00027837,0.00006034,-0.00010537,-0.00010389,0.00122140,
 -0.00056435,-0.00066274,-0.00025116,0.00006539,0.00024240,-0.00001364,
 0.00019248,-0.00013398,-0.00035432,0.00010781,0.00015643,0.00011862,-0
 .00116880,-0.00367787,-0.00017067,-0.00009219,0.00018378,0.00006672,0.
 00023606,0.00071282,-0.00004562,-0.00006501,0.00039761,0.03256786,0.01
 647740,-0.02206507,-0.00401623,-0.00094211,0.00536324,-0.00312653,-0.0
 0259963,0.00536325,-0.02708711,-0.01312310,0.01693950\\-0.00000005,0.0
 0000002,0.00000002,0.00000015,0.00000065,-0.00000004,-0.00000027,0.000
 00103,-0.00000004,-0.00000031,0.00000097,0.00000009,0.00000030,0.00000
 090,0.00000005,-0.00000081,-0.00000016,-0.00000016,-0.00000066,-0.0000
 0075,0.00000006,-0.00000090,-0.00000015,0.00000012,-0.00000077,-0.0000
 0075,-0.00000008,0.00000058,-0.00000039,0.,0.00000068,-0.00000065,0.00
 000003,0.00000105,-0.00000035,-0.00000004,0.00000095,-0.00000026,0.000
 00007,0.00000010,-0.00000008,-0.00000053,0.,0.00000041,0.00000010,-0.0
 0000038,-0.00000014,0.00000015,0.00000033,-0.00000030,0.00000020\\\@


 TRUTH, IN SCIENCE, CAN BE DEFINED AS THE WORKING HYPOTHESIS 
 BEST FITTED TO OPEN THE WAY TO THE NEXT BETTER ONE.

                              -- KONRAD LORENZ
 FChkPn:  Coordinates translated and rotated.
 FChkPn:  Coordinates match /B/ after translation and rotation.
 Job cpu time:       0 days  0 hours 53 minutes 36.5 seconds.
 File lengths (MBytes):  RWF=    136 Int=      0 D2E=      0 Chk=      8 Scr=      1
 Normal termination of Gaussian 09 at Wed Jan  8 19:36:47 2020.
