 Entering Gaussian System, Link 0=g09
 Input=PhNH2.gjf
 Output=PhNH2.log
 Initial command:
 /usr/local/g09/l1.exe "/tmp/jzhangbm/g09-scratch/152164/Gau-15954.inp" -scrdir="/tmp/jzhangbm/g09-scratch/152164/"
 Entering Link 1 = /usr/local/g09/l1.exe PID=     15955.
  
 Copyright (c) 1988,1990,1992,1993,1995,1998,2003,2009,2013,
            Gaussian, Inc.  All Rights Reserved.
  
 This is part of the Gaussian(R) 09 program.  It is based on
 the Gaussian(R) 03 system (copyright 2003, Gaussian, Inc.),
 the Gaussian(R) 98 system (copyright 1998, Gaussian, Inc.),
 the Gaussian(R) 94 system (copyright 1995, Gaussian, Inc.),
 the Gaussian 92(TM) system (copyright 1992, Gaussian, Inc.),
 the Gaussian 90(TM) system (copyright 1990, Gaussian, Inc.),
 the Gaussian 88(TM) system (copyright 1988, Gaussian, Inc.),
 the Gaussian 86(TM) system (copyright 1986, Carnegie Mellon
 University), and the Gaussian 82(TM) system (copyright 1983,
 Carnegie Mellon University). Gaussian is a federally registered
 trademark of Gaussian, Inc.
  
 This software contains proprietary and confidential information,
 including trade secrets, belonging to Gaussian, Inc.
  
 This software is provided under written license and may be
 used, copied, transmitted, or stored only in accord with that
 written license.
  
 The following legend is applicable only to US Government
 contracts under FAR:
  
                    RESTRICTED RIGHTS LEGEND
  
 Use, reproduction and disclosure by the US Government is
 subject to restrictions as set forth in subparagraphs (a)
 and (c) of the Commercial Computer Software - Restricted
 Rights clause in FAR 52.227-19.
  
 Gaussian, Inc.
 340 Quinnipiac St., Bldg. 40, Wallingford CT 06492
  
  
 ---------------------------------------------------------------
 Warning -- This program may not be used in any manner that
 competes with the business of Gaussian, Inc. or will provide
 assistance to any competitor of Gaussian, Inc.  The licensee
 of this program is prohibited from giving any competitor of
 Gaussian, Inc. access to this program.  By using this program,
 the user acknowledges that Gaussian, Inc. is engaged in the
 business of creating and licensing software in the field of
 computational chemistry and represents and warrants to the
 licensee that it is not a competitor of Gaussian, Inc. and that
 it will not use this program in any manner prohibited above.
 ---------------------------------------------------------------
  

 Cite this work as:
 Gaussian 09, Revision D.01,
 M. J. Frisch, G. W. Trucks, H. B. Schlegel, G. E. Scuseria, 
 M. A. Robb, J. R. Cheeseman, G. Scalmani, V. Barone, B. Mennucci, 
 G. A. Petersson, H. Nakatsuji, M. Caricato, X. Li, H. P. Hratchian, 
 A. F. Izmaylov, J. Bloino, G. Zheng, J. L. Sonnenberg, M. Hada, 
 M. Ehara, K. Toyota, R. Fukuda, J. Hasegawa, M. Ishida, T. Nakajima, 
 Y. Honda, O. Kitao, H. Nakai, T. Vreven, J. A. Montgomery, Jr., 
 J. E. Peralta, F. Ogliaro, M. Bearpark, J. J. Heyd, E. Brothers, 
 K. N. Kudin, V. N. Staroverov, T. Keith, R. Kobayashi, J. Normand, 
 K. Raghavachari, A. Rendell, J. C. Burant, S. S. Iyengar, J. Tomasi, 
 M. Cossi, N. Rega, J. M. Millam, M. Klene, J. E. Knox, J. B. Cross, 
 V. Bakken, C. Adamo, J. Jaramillo, R. Gomperts, R. E. Stratmann, 
 O. Yazyev, A. J. Austin, R. Cammi, C. Pomelli, J. W. Ochterski, 
 R. L. Martin, K. Morokuma, V. G. Zakrzewski, G. A. Voth, 
 P. Salvador, J. J. Dannenberg, S. Dapprich, A. D. Daniels, 
 O. Farkas, J. B. Foresman, J. V. Ortiz, J. Cioslowski, 
 and D. J. Fox, Gaussian, Inc., Wallingford CT, 2013.
 
 ******************************************
 Gaussian 09:  EM64L-G09RevD.01 24-Apr-2013
                18-Dec-2019 
 ******************************************
 %chk=PhNH2.chk
 %mem=50GB
 %nprocs=24
 Will use up to   24 processors via shared memory.
 ----------------------------------------------------------------------
 #p opt=tight freq=noraman pbe1pbe/def2TZVP gfinput pop=nboread formche
 ck int=ultrafine
 ----------------------------------------------------------------------
 1/7=10,14=-1,18=20,19=15,26=4,38=1/1,3;
 2/9=110,12=2,17=6,18=5,40=1/2;
 3/5=44,7=101,11=2,16=1,24=10,25=1,30=1,71=1,74=-13,75=-5/1,2,3;
 4//1;
 5/5=2,38=5/2;
 6/7=2,8=2,9=2,10=2,28=1,40=2/1,7;
 7//1,2,3,16;
 1/7=10,14=-1,18=20,19=15,26=4/3(2);
 2/9=110/2;
 99//99;
 2/9=110/2;
 3/5=44,7=101,11=2,16=1,25=1,30=1,71=1,74=-13,75=-5/1,2,3;
 4/5=5,16=3,69=1/1;
 5/5=2,38=5/2;
 7//1,2,3,16;
 1/7=10,14=-1,18=20,19=15,26=4/3(-5);
 2/9=110/2;
 6/7=2,8=2,9=2,10=2,19=2,28=1,40=2/1,7;
 99/9=1/99;
 Leave Link    1 at Wed Dec 18 13:27:40 2019, MaxMem=  6710886400 cpu:         1.9
 (Enter /usr/local/g09/l101.exe)
 -----
 PhNH2
 -----
 Symbolic Z-matrix:
 Charge =  0 Multiplicity = 1
 C                    -0.24434  -0.13406  -1.18354 
 H                    -0.7982   -0.23695  -2.09324 
 C                     1.15653  -0.11174  -1.2148 
 H                     1.67227  -0.1976   -2.14836 
 C                     1.88193   0.02302  -0.02334 
 H                     2.95153   0.04006  -0.0472 
 C                     1.20645   0.13547   1.19936 
 H                     1.76031   0.23836   2.10906 
 C                    -0.19442   0.11315   1.23062 
 H                    -0.71016   0.19901   2.16418 
 C                    -0.91982  -0.02161   0.03916 
 N                    -2.38927  -0.04502   0.07195 
 H                    -2.74065  -0.14637  -0.85878 
 H                    -2.69733  -0.84826   0.58175 
 
 NAtoms=     14 NQM=       14 NQMF=       0 NMMI=      0 NMMIF=      0
                NMic=       0 NMicF=      0.
                    Isotopes and Nuclear Properties:
 (Nuclear quadrupole moments (NQMom) in fm**2, nuclear magnetic moments (NMagM)
  in nuclear magnetons)

  Atom         1           2           3           4           5           6           7           8           9          10
 IAtWgt=          12           1          12           1          12           1          12           1          12           1
 AtmWgt=  12.0000000   1.0078250  12.0000000   1.0078250  12.0000000   1.0078250  12.0000000   1.0078250  12.0000000   1.0078250
 NucSpn=           0           1           0           1           0           1           0           1           0           1
 AtZEff=   0.0000000   0.0000000   0.0000000   0.0000000   0.0000000   0.0000000   0.0000000   0.0000000   0.0000000   0.0000000
 NQMom=    0.0000000   0.0000000   0.0000000   0.0000000   0.0000000   0.0000000   0.0000000   0.0000000   0.0000000   0.0000000
 NMagM=    0.0000000   2.7928460   0.0000000   2.7928460   0.0000000   2.7928460   0.0000000   2.7928460   0.0000000   2.7928460
 AtZNuc=   6.0000000   1.0000000   6.0000000   1.0000000   6.0000000   1.0000000   6.0000000   1.0000000   6.0000000   1.0000000

  Atom        11          12          13          14
 IAtWgt=          12          14           1           1
 AtmWgt=  12.0000000  14.0030740   1.0078250   1.0078250
 NucSpn=           0           2           1           1
 AtZEff=   0.0000000   0.0000000   0.0000000   0.0000000
 NQMom=    0.0000000   2.0440000   0.0000000   0.0000000
 NMagM=    0.0000000   0.4037610   2.7928460   2.7928460
 AtZNuc=   6.0000000   7.0000000   1.0000000   1.0000000
 Leave Link  101 at Wed Dec 18 13:27:41 2019, MaxMem=  6710886400 cpu:        11.6
 (Enter /usr/local/g09/l103.exe)

 GradGradGradGradGradGradGradGradGradGradGradGradGradGradGradGradGradGrad
 Berny optimization.
 Initialization pass.
                           ----------------------------
                           !    Initial Parameters    !
                           ! (Angstroms and Degrees)  !
 --------------------------                            --------------------------
 ! Name  Definition              Value          Derivative Info.                !
 --------------------------------------------------------------------------------
 ! R1    R(1,2)                  1.07           estimate D2E/DX2                !
 ! R2    R(1,3)                  1.4014         estimate D2E/DX2                !
 ! R3    R(1,11)                 1.4014         estimate D2E/DX2                !
 ! R4    R(3,4)                  1.07           estimate D2E/DX2                !
 ! R5    R(3,5)                  1.4014         estimate D2E/DX2                !
 ! R6    R(5,6)                  1.07           estimate D2E/DX2                !
 ! R7    R(5,7)                  1.4014         estimate D2E/DX2                !
 ! R8    R(7,8)                  1.07           estimate D2E/DX2                !
 ! R9    R(7,9)                  1.4014         estimate D2E/DX2                !
 ! R10   R(9,10)                 1.07           estimate D2E/DX2                !
 ! R11   R(9,11)                 1.4014         estimate D2E/DX2                !
 ! R12   R(11,12)                1.47           estimate D2E/DX2                !
 ! R13   R(12,13)                1.0            estimate D2E/DX2                !
 ! R14   R(12,14)                1.0            estimate D2E/DX2                !
 ! A1    A(2,1,3)              120.0            estimate D2E/DX2                !
 ! A2    A(2,1,11)             120.0            estimate D2E/DX2                !
 ! A3    A(3,1,11)             120.0            estimate D2E/DX2                !
 ! A4    A(1,3,4)              120.0            estimate D2E/DX2                !
 ! A5    A(1,3,5)              120.0            estimate D2E/DX2                !
 ! A6    A(4,3,5)              120.0            estimate D2E/DX2                !
 ! A7    A(3,5,6)              120.0            estimate D2E/DX2                !
 ! A8    A(3,5,7)              120.0            estimate D2E/DX2                !
 ! A9    A(6,5,7)              120.0            estimate D2E/DX2                !
 ! A10   A(5,7,8)              120.0            estimate D2E/DX2                !
 ! A11   A(5,7,9)              120.0            estimate D2E/DX2                !
 ! A12   A(8,7,9)              120.0            estimate D2E/DX2                !
 ! A13   A(7,9,10)             120.0            estimate D2E/DX2                !
 ! A14   A(7,9,11)             120.0            estimate D2E/DX2                !
 ! A15   A(10,9,11)            120.0            estimate D2E/DX2                !
 ! A16   A(1,11,9)             120.0            estimate D2E/DX2                !
 ! A17   A(1,11,12)            120.0            estimate D2E/DX2                !
 ! A18   A(9,11,12)            120.0            estimate D2E/DX2                !
 ! A19   A(11,12,13)           109.3968         estimate D2E/DX2                !
 ! A20   A(11,12,14)           109.3968         estimate D2E/DX2                !
 ! A21   A(13,12,14)           106.5484         estimate D2E/DX2                !
 ! D1    D(2,1,3,4)              0.0            estimate D2E/DX2                !
 ! D2    D(2,1,3,5)            180.0            estimate D2E/DX2                !
 ! D3    D(11,1,3,4)          -180.0            estimate D2E/DX2                !
 ! D4    D(11,1,3,5)             0.0            estimate D2E/DX2                !
 ! D5    D(2,1,11,9)          -180.0            estimate D2E/DX2                !
 ! D6    D(2,1,11,12)            0.0            estimate D2E/DX2                !
 ! D7    D(3,1,11,9)             0.0            estimate D2E/DX2                !
 ! D8    D(3,1,11,12)          180.0            estimate D2E/DX2                !
 ! D9    D(1,3,5,6)           -180.0            estimate D2E/DX2                !
 ! D10   D(1,3,5,7)              0.0            estimate D2E/DX2                !
 ! D11   D(4,3,5,6)              0.0            estimate D2E/DX2                !
 ! D12   D(4,3,5,7)            180.0            estimate D2E/DX2                !
 ! D13   D(3,5,7,8)            180.0            estimate D2E/DX2                !
 ! D14   D(3,5,7,9)              0.0            estimate D2E/DX2                !
 ! D15   D(6,5,7,8)              0.0            estimate D2E/DX2                !
 ! D16   D(6,5,7,9)            180.0            estimate D2E/DX2                !
 ! D17   D(5,7,9,10)           180.0            estimate D2E/DX2                !
 ! D18   D(5,7,9,11)             0.0            estimate D2E/DX2                !
 ! D19   D(8,7,9,10)             0.0            estimate D2E/DX2                !
 ! D20   D(8,7,9,11)           180.0            estimate D2E/DX2                !
 ! D21   D(7,9,11,1)             0.0            estimate D2E/DX2                !
 ! D22   D(7,9,11,12)          180.0            estimate D2E/DX2                !
 ! D23   D(10,9,11,1)         -180.0            estimate D2E/DX2                !
 ! D24   D(10,9,11,12)           0.0            estimate D2E/DX2                !
 ! D25   D(1,11,12,13)           0.0            estimate D2E/DX2                !
 ! D26   D(1,11,12,14)         116.3661         estimate D2E/DX2                !
 ! D27   D(9,11,12,13)         180.0            estimate D2E/DX2                !
 ! D28   D(9,11,12,14)         -63.6339         estimate D2E/DX2                !
 --------------------------------------------------------------------------------
 Trust Radius=3.00D-01 FncErr=1.00D-07 GrdErr=1.00D-06
 Number of steps in this run=     73 maximum allowed number of steps=    100.
 GradGradGradGradGradGradGradGradGradGradGradGradGradGradGradGradGradGrad

 Leave Link  103 at Wed Dec 18 13:27:41 2019, MaxMem=  6710886400 cpu:         0.1
 (Enter /usr/local/g09/l202.exe)
                          Input orientation:                          
 ---------------------------------------------------------------------
 Center     Atomic      Atomic             Coordinates (Angstroms)
 Number     Number       Type             X           Y           Z
 ---------------------------------------------------------------------
      1          6           0       -0.244343   -0.134058   -1.183543
      2          1           0       -0.798200   -0.236953   -2.093243
      3          6           0        1.156531   -0.111741   -1.214795
      4          1           0        1.672272   -0.197596   -2.148358
      5          6           0        1.881928    0.023023   -0.023342
      6          1           0        2.951526    0.040062   -0.047205
      7          6           0        1.206451    0.135470    1.199363
      8          1           0        1.760308    0.238365    2.109064
      9          6           0       -0.194423    0.113153    1.230616
     10          1           0       -0.710164    0.199008    2.164179
     11          6           0       -0.919820   -0.021611    0.039163
     12          7           0       -2.389267   -0.045020    0.071945
     13          1           0       -2.740651   -0.146374   -0.858784
     14          1           0       -2.697332   -0.848264    0.581746
 ---------------------------------------------------------------------
                    Distance matrix (angstroms):
                    1          2          3          4          5
     1  C    0.000000
     2  H    1.070000   0.000000
     3  C    1.401400   2.146700   0.000000
     4  H    2.146700   2.471400   1.070000   0.000000
     5  C    2.427296   3.396345   1.401400   2.146700   0.000000
     6  H    3.396345   4.280590   2.146700   2.471400   1.070000
     7  C    2.802800   3.872800   2.427296   3.396345   1.401400
     8  H    3.872800   4.942800   3.396345   4.280590   2.146700
     9  C    2.427296   3.396345   2.802800   3.872800   2.427296
    10  H    3.396345   4.280590   3.872800   4.942800   3.396345
    11  C    1.401400   2.146700   2.427296   3.396345   2.802800
    12  N    2.486942   2.693766   3.772644   4.631321   4.272800
    13  H    2.517374   2.303305   3.913562   4.597773   4.700521
    14  H    3.105397   3.337061   4.315355   5.193292   4.700521
                    6          7          8          9         10
     6  H    0.000000
     7  C    2.146700   0.000000
     8  H    2.471400   1.070000   0.000000
     9  C    3.396345   1.401400   2.146700   0.000000
    10  H    4.280590   2.146700   2.471400   1.070000   0.000000
    11  C    3.872800   2.427296   3.396345   1.401400   2.146700
    12  N    5.342800   3.772644   4.631321   2.486942   2.693766
    13  H    5.752764   4.460383   5.405069   3.303971   3.657932
    14  H    5.752764   4.072923   4.835702   2.758606   2.747673
                   11         12         13         14
    11  C    0.000000
    12  N    1.470000   0.000000
    13  H    2.034036   1.000000   0.000000
    14  H    2.034036   1.000000   1.603013   0.000000
 Stoichiometry    C6H7N
 Framework group  C1[X(C6H7N)]
 Deg. of freedom    36
 Full point group                 C1      NOp   1
 Largest Abelian subgroup         C1      NOp   1
 Largest concise Abelian subgroup C1      NOp   1
                         Standard orientation:                         
 ---------------------------------------------------------------------
 Center     Atomic      Atomic             Coordinates (Angstroms)
 Number     Number       Type             X           Y           Z
 ---------------------------------------------------------------------
      1          6           0        0.248204    1.197712   -0.012657
      2          1           0        0.805016    2.111409   -0.016826
      3          6           0       -1.152514    1.230881    0.015851
      4          1           0       -1.665180    2.169904    0.033448
      5          6           0       -1.881782    0.034194    0.021312
      6          1           0       -2.951261    0.059520    0.043078
      7          6           0       -1.210333   -1.195662   -0.001735
      8          1           0       -1.767146   -2.109359    0.002434
      9          6           0        0.190384   -1.228832   -0.030243
     10          1           0        0.703050   -2.167855   -0.047839
     11          6           0        0.919652   -0.032145   -0.035703
     12          7           0        2.388936   -0.066938   -0.065606
     13          1           0        2.743352    0.868150   -0.065528
     14          1           0        2.727947   -0.500097    0.769526
 ---------------------------------------------------------------------
 Rotational constants (GHZ):      5.5594762      2.5407156      1.7520506
 Leave Link  202 at Wed Dec 18 13:27:41 2019, MaxMem=  6710886400 cpu:         1.1
 (Enter /usr/local/g09/l301.exe)
 Standard basis: def2TZVP (5D, 7F)
 Ernie: Thresh=  0.10000D-02 Tol=  0.10000D-05 Strict=F.
 AO basis set in the form of general basis input (Overlap normalization):
      1 0
 S   6 1.00       0.000000000000
      0.1357534968D+05  0.6064550360D-03
      0.2035233368D+04  0.4697908888D-02
      0.4632256236D+03  0.2433247765D-01
      0.1312001960D+03  0.9739996831D-01
      0.4285301589D+02  0.3019558425D+00
      0.1558418577D+02  0.6623360914D+00
 S   2 1.00       0.000000000000
      0.6206713851D+01  0.6559530854D+00
      0.2576489653D+01  0.3758563329D+00
 S   1 1.00       0.000000000000
      0.5769633942D+00  0.1000000000D+01
 S   1 1.00       0.000000000000
      0.2297283136D+00  0.1000000000D+01
 S   1 1.00       0.000000000000
      0.9516444003D-01  0.1000000000D+01
 P   4 1.00       0.000000000000
      0.3469723224D+02  0.1132722000D-01
      0.7958262283D+01  0.7616965920D-01
      0.2378082688D+01  0.3019225220D+00
      0.8143320818D+00  0.7278502735D+00
 P   1 1.00       0.000000000000
      0.2888754725D+00  0.1000000000D+01
 P   1 1.00       0.000000000000
      0.1005682367D+00  0.1000000000D+01
 D   1 1.00       0.000000000000
      0.1097000000D+01  0.1000000000D+01
 D   1 1.00       0.000000000000
      0.3180000000D+00  0.1000000000D+01
 F   1 1.00       0.000000000000
      0.7610000000D+00  0.1000000000D+01
 ****
      2 0
 S   3 1.00       0.000000000000
      0.3406134100D+02  0.2543930721D-01
      0.5123574600D+01  0.1900859489D+00
      0.1164662600D+01  0.8524411301D+00
 S   1 1.00       0.000000000000
      0.3272304100D+00  0.1000000000D+01
 S   1 1.00       0.000000000000
      0.1030724100D+00  0.1000000000D+01
 P   1 1.00       0.000000000000
      0.8000000000D+00  0.1000000000D+01
 ****
      3 0
 S   6 1.00       0.000000000000
      0.1357534968D+05  0.6064550360D-03
      0.2035233368D+04  0.4697908888D-02
      0.4632256236D+03  0.2433247765D-01
      0.1312001960D+03  0.9739996831D-01
      0.4285301589D+02  0.3019558425D+00
      0.1558418577D+02  0.6623360914D+00
 S   2 1.00       0.000000000000
      0.6206713851D+01  0.6559530854D+00
      0.2576489653D+01  0.3758563329D+00
 S   1 1.00       0.000000000000
      0.5769633942D+00  0.1000000000D+01
 S   1 1.00       0.000000000000
      0.2297283136D+00  0.1000000000D+01
 S   1 1.00       0.000000000000
      0.9516444003D-01  0.1000000000D+01
 P   4 1.00       0.000000000000
      0.3469723224D+02  0.1132722000D-01
      0.7958262283D+01  0.7616965920D-01
      0.2378082688D+01  0.3019225220D+00
      0.8143320818D+00  0.7278502735D+00
 P   1 1.00       0.000000000000
      0.2888754725D+00  0.1000000000D+01
 P   1 1.00       0.000000000000
      0.1005682367D+00  0.1000000000D+01
 D   1 1.00       0.000000000000
      0.1097000000D+01  0.1000000000D+01
 D   1 1.00       0.000000000000
      0.3180000000D+00  0.1000000000D+01
 F   1 1.00       0.000000000000
      0.7610000000D+00  0.1000000000D+01
 ****
      4 0
 S   3 1.00       0.000000000000
      0.3406134100D+02  0.2543930721D-01
      0.5123574600D+01  0.1900859489D+00
      0.1164662600D+01  0.8524411301D+00
 S   1 1.00       0.000000000000
      0.3272304100D+00  0.1000000000D+01
 S   1 1.00       0.000000000000
      0.1030724100D+00  0.1000000000D+01
 P   1 1.00       0.000000000000
      0.8000000000D+00  0.1000000000D+01
 ****
      5 0
 S   6 1.00       0.000000000000
      0.1357534968D+05  0.6064550360D-03
      0.2035233368D+04  0.4697908888D-02
      0.4632256236D+03  0.2433247765D-01
      0.1312001960D+03  0.9739996831D-01
      0.4285301589D+02  0.3019558425D+00
      0.1558418577D+02  0.6623360914D+00
 S   2 1.00       0.000000000000
      0.6206713851D+01  0.6559530854D+00
      0.2576489653D+01  0.3758563329D+00
 S   1 1.00       0.000000000000
      0.5769633942D+00  0.1000000000D+01
 S   1 1.00       0.000000000000
      0.2297283136D+00  0.1000000000D+01
 S   1 1.00       0.000000000000
      0.9516444003D-01  0.1000000000D+01
 P   4 1.00       0.000000000000
      0.3469723224D+02  0.1132722000D-01
      0.7958262283D+01  0.7616965920D-01
      0.2378082688D+01  0.3019225220D+00
      0.8143320818D+00  0.7278502735D+00
 P   1 1.00       0.000000000000
      0.2888754725D+00  0.1000000000D+01
 P   1 1.00       0.000000000000
      0.1005682367D+00  0.1000000000D+01
 D   1 1.00       0.000000000000
      0.1097000000D+01  0.1000000000D+01
 D   1 1.00       0.000000000000
      0.3180000000D+00  0.1000000000D+01
 F   1 1.00       0.000000000000
      0.7610000000D+00  0.1000000000D+01
 ****
      6 0
 S   3 1.00       0.000000000000
      0.3406134100D+02  0.2543930721D-01
      0.5123574600D+01  0.1900859489D+00
      0.1164662600D+01  0.8524411301D+00
 S   1 1.00       0.000000000000
      0.3272304100D+00  0.1000000000D+01
 S   1 1.00       0.000000000000
      0.1030724100D+00  0.1000000000D+01
 P   1 1.00       0.000000000000
      0.8000000000D+00  0.1000000000D+01
 ****
      7 0
 S   6 1.00       0.000000000000
      0.1357534968D+05  0.6064550360D-03
      0.2035233368D+04  0.4697908888D-02
      0.4632256236D+03  0.2433247765D-01
      0.1312001960D+03  0.9739996831D-01
      0.4285301589D+02  0.3019558425D+00
      0.1558418577D+02  0.6623360914D+00
 S   2 1.00       0.000000000000
      0.6206713851D+01  0.6559530854D+00
      0.2576489653D+01  0.3758563329D+00
 S   1 1.00       0.000000000000
      0.5769633942D+00  0.1000000000D+01
 S   1 1.00       0.000000000000
      0.2297283136D+00  0.1000000000D+01
 S   1 1.00       0.000000000000
      0.9516444003D-01  0.1000000000D+01
 P   4 1.00       0.000000000000
      0.3469723224D+02  0.1132722000D-01
      0.7958262283D+01  0.7616965920D-01
      0.2378082688D+01  0.3019225220D+00
      0.8143320818D+00  0.7278502735D+00
 P   1 1.00       0.000000000000
      0.2888754725D+00  0.1000000000D+01
 P   1 1.00       0.000000000000
      0.1005682367D+00  0.1000000000D+01
 D   1 1.00       0.000000000000
      0.1097000000D+01  0.1000000000D+01
 D   1 1.00       0.000000000000
      0.3180000000D+00  0.1000000000D+01
 F   1 1.00       0.000000000000
      0.7610000000D+00  0.1000000000D+01
 ****
      8 0
 S   3 1.00       0.000000000000
      0.3406134100D+02  0.2543930721D-01
      0.5123574600D+01  0.1900859489D+00
      0.1164662600D+01  0.8524411301D+00
 S   1 1.00       0.000000000000
      0.3272304100D+00  0.1000000000D+01
 S   1 1.00       0.000000000000
      0.1030724100D+00  0.1000000000D+01
 P   1 1.00       0.000000000000
      0.8000000000D+00  0.1000000000D+01
 ****
      9 0
 S   6 1.00       0.000000000000
      0.1357534968D+05  0.6064550360D-03
      0.2035233368D+04  0.4697908888D-02
      0.4632256236D+03  0.2433247765D-01
      0.1312001960D+03  0.9739996831D-01
      0.4285301589D+02  0.3019558425D+00
      0.1558418577D+02  0.6623360914D+00
 S   2 1.00       0.000000000000
      0.6206713851D+01  0.6559530854D+00
      0.2576489653D+01  0.3758563329D+00
 S   1 1.00       0.000000000000
      0.5769633942D+00  0.1000000000D+01
 S   1 1.00       0.000000000000
      0.2297283136D+00  0.1000000000D+01
 S   1 1.00       0.000000000000
      0.9516444003D-01  0.1000000000D+01
 P   4 1.00       0.000000000000
      0.3469723224D+02  0.1132722000D-01
      0.7958262283D+01  0.7616965920D-01
      0.2378082688D+01  0.3019225220D+00
      0.8143320818D+00  0.7278502735D+00
 P   1 1.00       0.000000000000
      0.2888754725D+00  0.1000000000D+01
 P   1 1.00       0.000000000000
      0.1005682367D+00  0.1000000000D+01
 D   1 1.00       0.000000000000
      0.1097000000D+01  0.1000000000D+01
 D   1 1.00       0.000000000000
      0.3180000000D+00  0.1000000000D+01
 F   1 1.00       0.000000000000
      0.7610000000D+00  0.1000000000D+01
 ****
     10 0
 S   3 1.00       0.000000000000
      0.3406134100D+02  0.2543930721D-01
      0.5123574600D+01  0.1900859489D+00
      0.1164662600D+01  0.8524411301D+00
 S   1 1.00       0.000000000000
      0.3272304100D+00  0.1000000000D+01
 S   1 1.00       0.000000000000
      0.1030724100D+00  0.1000000000D+01
 P   1 1.00       0.000000000000
      0.8000000000D+00  0.1000000000D+01
 ****
     11 0
 S   6 1.00       0.000000000000
      0.1357534968D+05  0.6064550360D-03
      0.2035233368D+04  0.4697908888D-02
      0.4632256236D+03  0.2433247765D-01
      0.1312001960D+03  0.9739996831D-01
      0.4285301589D+02  0.3019558425D+00
      0.1558418577D+02  0.6623360914D+00
 S   2 1.00       0.000000000000
      0.6206713851D+01  0.6559530854D+00
      0.2576489653D+01  0.3758563329D+00
 S   1 1.00       0.000000000000
      0.5769633942D+00  0.1000000000D+01
 S   1 1.00       0.000000000000
      0.2297283136D+00  0.1000000000D+01
 S   1 1.00       0.000000000000
      0.9516444003D-01  0.1000000000D+01
 P   4 1.00       0.000000000000
      0.3469723224D+02  0.1132722000D-01
      0.7958262283D+01  0.7616965920D-01
      0.2378082688D+01  0.3019225220D+00
      0.8143320818D+00  0.7278502735D+00
 P   1 1.00       0.000000000000
      0.2888754725D+00  0.1000000000D+01
 P   1 1.00       0.000000000000
      0.1005682367D+00  0.1000000000D+01
 D   1 1.00       0.000000000000
      0.1097000000D+01  0.1000000000D+01
 D   1 1.00       0.000000000000
      0.3180000000D+00  0.1000000000D+01
 F   1 1.00       0.000000000000
      0.7610000000D+00  0.1000000000D+01
 ****
     12 0
 S   6 1.00       0.000000000000
      0.1973080065D+05  0.5862640263D-03
      0.2957895875D+04  0.4542882059D-02
      0.6732213360D+03  0.2355841345D-01
      0.1906824949D+03  0.9470919329D-01
      0.6229544190D+02  0.2971978491D+00
      0.2265416118D+02  0.6691624690D+00
 S   2 1.00       0.000000000000
      0.8979147743D+01  0.6459668363D+00
      0.3686300237D+01  0.3870057439D+00
 S   1 1.00       0.000000000000
      0.8466007680D+00  0.1000000000D+01
 S   1 1.00       0.000000000000
      0.3364713377D+00  0.1000000000D+01
 S   1 1.00       0.000000000000
      0.1364765367D+00  0.1000000000D+01
 P   4 1.00       0.000000000000
      0.4920038051D+02  0.1144882510D-01
      0.1134679054D+02  0.7842233797D-01
      0.3427397241D+01  0.3081809474D+00
      0.1178552513D+01  0.7202719637D+00
 P   1 1.00       0.000000000000
      0.4164220497D+00  0.1000000000D+01
 P   1 1.00       0.000000000000
      0.1426082601D+00  0.1000000000D+01
 D   1 1.00       0.000000000000
      0.1654000000D+01  0.1000000000D+01
 D   1 1.00       0.000000000000
      0.4690000000D+00  0.1000000000D+01
 F   1 1.00       0.000000000000
      0.1093000000D+01  0.1000000000D+01
 ****
     13 0
 S   3 1.00       0.000000000000
      0.3406134100D+02  0.2543930721D-01
      0.5123574600D+01  0.1900859489D+00
      0.1164662600D+01  0.8524411301D+00
 S   1 1.00       0.000000000000
      0.3272304100D+00  0.1000000000D+01
 S   1 1.00       0.000000000000
      0.1030724100D+00  0.1000000000D+01
 P   1 1.00       0.000000000000
      0.8000000000D+00  0.1000000000D+01
 ****
     14 0
 S   3 1.00       0.000000000000
      0.3406134100D+02  0.2543930721D-01
      0.5123574600D+01  0.1900859489D+00
      0.1164662600D+01  0.8524411301D+00
 S   1 1.00       0.000000000000
      0.3272304100D+00  0.1000000000D+01
 S   1 1.00       0.000000000000
      0.1030724100D+00  0.1000000000D+01
 P   1 1.00       0.000000000000
      0.8000000000D+00  0.1000000000D+01
 ****

 There are   294 symmetry adapted cartesian basis functions of A   symmetry.
 There are   259 symmetry adapted basis functions of A   symmetry.
   259 basis functions,   413 primitive gaussians,   294 cartesian basis functions
    25 alpha electrons       25 beta electrons
       nuclear repulsion energy       269.6836837879 Hartrees.
 IExCor= 1009 DFT=T Ex+Corr=PBE1PBE ExCW=0 ScaHFX=  0.250000
 ScaDFX=  0.750000  0.750000  1.000000  1.000000 ScalE2=  1.000000  1.000000
 IRadAn=      5 IRanWt=     -1 IRanGd=            0 ICorTp=0 IEmpDi=  4
 NAtoms=   14 NActive=   14 NUniq=   14 SFac= 1.00D+00 NAtFMM=   60 NAOKFM=F Big=F
 Integral buffers will be    131072 words long.
 Raffenetti 2 integral format.
 Two-electron integral symmetry is turned on.
 Leave Link  301 at Wed Dec 18 13:27:41 2019, MaxMem=  6710886400 cpu:         1.8
 (Enter /usr/local/g09/l302.exe)
 NPDir=0 NMtPBC=     1 NCelOv=     1 NCel=       1 NClECP=     1 NCelD=      1
         NCelK=      1 NCelE2=     1 NClLst=     1 CellRange=     0.0.
 One-electron integrals computed using PRISM.
   1 Symmetry operations used in ECPInt.
 ECPInt:  NShTT=    5565 NPrTT=   16828 LenC2=    5496 LenP2D=   13676.
 LDataN:  DoStor=T MaxTD1= 6 Len=  172
 NBasis=   259 RedAO= T EigKep=  9.81D-06  NBF=   259
 NBsUse=   259 1.00D-06 EigRej= -1.00D+00 NBFU=   259
 Precomputing XC quadrature grid using
 IXCGrd= 4 IRadAn=           5 IRanWt=          -1 IRanGd=           0 AccXCQ= 0.00D+00.
 Generated NRdTot=       0 NPtTot=           0 NUsed=           0 NTot=          32
 NSgBfM=   293   293   293   293   293 MxSgAt=    14 MxSgA2=    14.
 Leave Link  302 at Wed Dec 18 13:27:42 2019, MaxMem=  6710886400 cpu:         8.6
 (Enter /usr/local/g09/l303.exe)
 DipDrv:  MaxL=1.
 Leave Link  303 at Wed Dec 18 13:27:42 2019, MaxMem=  6710886400 cpu:         2.7
 (Enter /usr/local/g09/l401.exe)
 ExpMin= 9.52D-02 ExpMax= 1.97D+04 ExpMxC= 6.73D+02 IAcc=3 IRadAn=         5 AccDes= 0.00D+00
 Harris functional with IExCor= 1009 and IRadAn=       5 diagonalized for initial guess.
 HarFok:  IExCor= 1009 AccDes= 0.00D+00 IRadAn=         5 IDoV= 1 UseB2=F ITyADJ=14
 ICtDFT=  3500011 ScaDFX=  1.000000  1.000000  1.000000  1.000000
 FoFCou: FMM=F IPFlag=           0 FMFlag=      100000 FMFlg1=           0
         NFxFlg=           0 DoJE=T BraDBF=F KetDBF=T FulRan=T
         wScrn=  0.000000 ICntrl=     500 IOpCl=  0 I1Cent=   200000004 NGrid=           0
         NMat0=    1 NMatS0=      1 NMatT0=    0 NMatD0=    1 NMtDS0=    0 NMtDT0=    0
 Petite list used in FoFCou.
 Harris En= -287.476596117603    
 JPrj=0 DoOrth=F DoCkMO=F.
 Leave Link  401 at Wed Dec 18 13:27:43 2019, MaxMem=  6710886400 cpu:        17.8
 (Enter /usr/local/g09/l502.exe)
 Closed shell SCF:
 Using DIIS extrapolation, IDIIS=  1040.
 Integral symmetry usage will be decided dynamically.
 Keep R1 ints in memory in canonical form, NReq=579974395.
 IVT=      287070 IEndB=      287070 NGot=  6710886400 MDV=  6143748046
 LenX=  6143748046 LenY=  6143661169
 Requested convergence on RMS density matrix=1.00D-08 within 128 cycles.
 Requested convergence on MAX density matrix=1.00D-06.
 Requested convergence on             energy=1.00D-06.
 No special actions if energy rises.
 FoFCou: FMM=F IPFlag=           0 FMFlag=           0 FMFlg1=           0
         NFxFlg=           0 DoJE=F BraDBF=F KetDBF=F FulRan=T
         wScrn=  0.000000 ICntrl=     600 IOpCl=  0 I1Cent=           0 NGrid=           0
         NMat0=    1 NMatS0=  33670 NMatT0=    0 NMatD0=    1 NMtDS0=    0 NMtDT0=    0
 Symmetry not used in FoFCou.
 Integral accuracy reduced to 1.0D-05 until final iterations.

 Cycle   1  Pass 0  IDiag  1:
 E= -287.172382105988    
 DIIS: error= 2.43D-02 at cycle   1 NSaved=   1.
 NSaved= 1 IEnMin= 1 EnMin= -287.172382105988     IErMin= 1 ErrMin= 2.43D-02
 ErrMax= 2.43D-02  0.00D+00 EMaxC= 1.00D-01 BMatC= 2.00D-01 BMatP= 2.00D-01
 IDIUse=3 WtCom= 7.57D-01 WtEn= 2.43D-01
 Coeff-Com:  0.100D+01
 Coeff-En:   0.100D+01
 Coeff:      0.100D+01
 Gap=     0.235 Goal=   None    Shift=    0.000
 GapD=    0.235 DampG=1.000 DampE=0.500 DampFc=0.5000 IDamp=-1.
 Damping current iteration by 5.00D-01
 RMSDP=3.38D-03 MaxDP=8.11D-02              OVMax= 1.69D-01

 Cycle   2  Pass 0  IDiag  1:
 E= -287.259216393936     Delta-E=       -0.086834287948 Rises=F Damp=T
 DIIS: error= 5.29D-03 at cycle   2 NSaved=   2.
 NSaved= 2 IEnMin= 2 EnMin= -287.259216393936     IErMin= 2 ErrMin= 5.29D-03
 ErrMax= 5.29D-03  0.00D+00 EMaxC= 1.00D-01 BMatC= 1.12D-02 BMatP= 2.00D-01
 IDIUse=3 WtCom= 9.47D-01 WtEn= 5.29D-02
 Coeff-Com: -0.181D-02 0.100D+01
 Coeff-En:   0.397D-01 0.960D+00
 Coeff:      0.384D-03 0.100D+01
 Gap=     0.280 Goal=   None    Shift=    0.000
 RMSDP=8.60D-04 MaxDP=2.26D-02 DE=-8.68D-02 OVMax= 9.76D-02

 Cycle   3  Pass 0  IDiag  1:
 E= -287.356004654250     Delta-E=       -0.096788260314 Rises=F Damp=F
 DIIS: error= 4.30D-03 at cycle   3 NSaved=   3.
 NSaved= 3 IEnMin= 3 EnMin= -287.356004654250     IErMin= 3 ErrMin= 4.30D-03
 ErrMax= 4.30D-03  0.00D+00 EMaxC= 1.00D-01 BMatC= 3.25D-03 BMatP= 1.12D-02
 IDIUse=3 WtCom= 9.57D-01 WtEn= 4.30D-02
 Coeff-Com: -0.562D-01 0.319D+00 0.737D+00
 Coeff-En:   0.000D+00 0.000D+00 0.100D+01
 Coeff:     -0.538D-01 0.306D+00 0.748D+00
 Gap=     0.225 Goal=   None    Shift=    0.000
 RMSDP=2.35D-04 MaxDP=7.03D-03 DE=-9.68D-02 OVMax= 3.24D-02

 Cycle   4  Pass 0  IDiag  1:
 E= -287.357609947321     Delta-E=       -0.001605293071 Rises=F Damp=F
 DIIS: error= 4.32D-03 at cycle   4 NSaved=   4.
 NSaved= 4 IEnMin= 4 EnMin= -287.357609947321     IErMin= 3 ErrMin= 4.30D-03
 ErrMax= 4.32D-03  0.00D+00 EMaxC= 1.00D-01 BMatC= 1.45D-03 BMatP= 3.25D-03
 IDIUse=3 WtCom= 9.57D-01 WtEn= 4.32D-02
 Coeff-Com: -0.335D-01 0.122D+00 0.455D+00 0.457D+00
 Coeff-En:   0.000D+00 0.000D+00 0.335D+00 0.665D+00
 Coeff:     -0.321D-01 0.116D+00 0.449D+00 0.466D+00
 Gap=     0.223 Goal=   None    Shift=    0.000
 RMSDP=1.44D-04 MaxDP=3.54D-03 DE=-1.61D-03 OVMax= 2.05D-02

 Cycle   5  Pass 0  IDiag  1:
 E= -287.359138874163     Delta-E=       -0.001528926843 Rises=F Damp=F
 DIIS: error= 9.68D-04 at cycle   5 NSaved=   5.
 NSaved= 5 IEnMin= 5 EnMin= -287.359138874163     IErMin= 5 ErrMin= 9.68D-04
 ErrMax= 9.68D-04  0.00D+00 EMaxC= 1.00D-01 BMatC= 8.54D-05 BMatP= 1.45D-03
 IDIUse=3 WtCom= 9.90D-01 WtEn= 9.68D-03
 Coeff-Com: -0.881D-02 0.189D-01 0.123D+00 0.241D+00 0.626D+00
 Coeff-En:   0.000D+00 0.000D+00 0.000D+00 0.138D-01 0.986D+00
 Coeff:     -0.872D-02 0.187D-01 0.122D+00 0.238D+00 0.629D+00
 Gap=     0.224 Goal=   None    Shift=    0.000
 RMSDP=3.28D-05 MaxDP=7.74D-04 DE=-1.53D-03 OVMax= 4.13D-03

 Cycle   6  Pass 0  IDiag  1:
 E= -287.359233497691     Delta-E=       -0.000094623528 Rises=F Damp=F
 DIIS: error= 4.63D-05 at cycle   6 NSaved=   6.
 NSaved= 6 IEnMin= 6 EnMin= -287.359233497691     IErMin= 6 ErrMin= 4.63D-05
 ErrMax= 4.63D-05  0.00D+00 EMaxC= 1.00D-01 BMatC= 7.80D-07 BMatP= 8.54D-05
 IDIUse=1 WtCom= 1.00D+00 WtEn= 0.00D+00
 Coeff-Com: -0.255D-02 0.463D-02 0.359D-01 0.738D-01 0.222D+00 0.667D+00
 Coeff:     -0.255D-02 0.463D-02 0.359D-01 0.738D-01 0.222D+00 0.667D+00
 Gap=     0.224 Goal=   None    Shift=    0.000
 RMSDP=4.81D-06 MaxDP=1.10D-04 DE=-9.46D-05 OVMax= 4.80D-04

 Initial convergence to 1.0D-05 achieved.  Increase integral accuracy.
 Cycle   7  Pass 1  IDiag  1:
 E= -287.359238108197     Delta-E=       -0.000004610505 Rises=F Damp=F
 DIIS: error= 2.36D-05 at cycle   1 NSaved=   1.
 NSaved= 1 IEnMin= 1 EnMin= -287.359238108197     IErMin= 1 ErrMin= 2.36D-05
 ErrMax= 2.36D-05  0.00D+00 EMaxC= 1.00D-01 BMatC= 2.31D-07 BMatP= 2.31D-07
 IDIUse=1 WtCom= 1.00D+00 WtEn= 0.00D+00
 Coeff-Com:  0.100D+01
 Coeff:      0.100D+01
 Gap=     0.224 Goal=   None    Shift=    0.000
 RMSDP=4.81D-06 MaxDP=1.10D-04 DE=-4.61D-06 OVMax= 4.11D-04

 Cycle   8  Pass 1  IDiag  1:
 E= -287.359237825463     Delta-E=        0.000000282733 Rises=F Damp=F
 DIIS: error= 3.10D-05 at cycle   2 NSaved=   2.
 NSaved= 2 IEnMin= 1 EnMin= -287.359238108197     IErMin= 1 ErrMin= 2.36D-05
 ErrMax= 3.10D-05  0.00D+00 EMaxC= 1.00D-01 BMatC= 5.37D-07 BMatP= 2.31D-07
 IDIUse=1 WtCom= 1.00D+00 WtEn= 0.00D+00
 Coeff-Com:  0.605D+00 0.395D+00
 Coeff:      0.605D+00 0.395D+00
 Gap=     0.224 Goal=   None    Shift=    0.000
 RMSDP=2.17D-06 MaxDP=7.77D-05 DE= 2.83D-07 OVMax= 2.55D-04

 Cycle   9  Pass 1  IDiag  1:
 E= -287.359238326607     Delta-E=       -0.000000501144 Rises=F Damp=F
 DIIS: error= 3.47D-06 at cycle   3 NSaved=   3.
 NSaved= 3 IEnMin= 3 EnMin= -287.359238326607     IErMin= 3 ErrMin= 3.47D-06
 ErrMax= 3.47D-06  0.00D+00 EMaxC= 1.00D-01 BMatC= 2.28D-09 BMatP= 2.31D-07
 IDIUse=1 WtCom= 1.00D+00 WtEn= 0.00D+00
 Coeff-Com:  0.260D+00 0.175D+00 0.565D+00
 Coeff:      0.260D+00 0.175D+00 0.565D+00
 Gap=     0.224 Goal=   None    Shift=    0.000
 RMSDP=2.67D-07 MaxDP=7.19D-06 DE=-5.01D-07 OVMax= 3.19D-05

 Cycle  10  Pass 1  IDiag  1:
 E= -287.359238328388     Delta-E=       -0.000000001780 Rises=F Damp=F
 DIIS: error= 2.02D-06 at cycle   4 NSaved=   4.
 NSaved= 4 IEnMin= 4 EnMin= -287.359238328388     IErMin= 4 ErrMin= 2.02D-06
 ErrMax= 2.02D-06  0.00D+00 EMaxC= 1.00D-01 BMatC= 6.83D-10 BMatP= 2.28D-09
 IDIUse=1 WtCom= 1.00D+00 WtEn= 0.00D+00
 Coeff-Com:  0.185D-02 0.223D-02 0.351D+00 0.645D+00
 Coeff:      0.185D-02 0.223D-02 0.351D+00 0.645D+00
 Gap=     0.224 Goal=   None    Shift=    0.000
 RMSDP=1.78D-07 MaxDP=5.60D-06 DE=-1.78D-09 OVMax= 1.22D-05

 Cycle  11  Pass 1  IDiag  1:
 E= -287.359238329157     Delta-E=       -0.000000000770 Rises=F Damp=F
 DIIS: error= 1.81D-07 at cycle   5 NSaved=   5.
 NSaved= 5 IEnMin= 5 EnMin= -287.359238329157     IErMin= 5 ErrMin= 1.81D-07
 ErrMax= 1.81D-07  0.00D+00 EMaxC= 1.00D-01 BMatC= 2.26D-11 BMatP= 6.83D-10
 IDIUse=1 WtCom= 1.00D+00 WtEn= 0.00D+00
 Coeff-Com: -0.116D-01-0.775D-02 0.135D+00 0.297D+00 0.587D+00
 Coeff:     -0.116D-01-0.775D-02 0.135D+00 0.297D+00 0.587D+00
 Gap=     0.224 Goal=   None    Shift=    0.000
 RMSDP=3.17D-08 MaxDP=8.29D-07 DE=-7.70D-10 OVMax= 1.53D-06

 Cycle  12  Pass 1  IDiag  1:
 E= -287.359238329176     Delta-E=       -0.000000000019 Rises=F Damp=F
 DIIS: error= 7.10D-08 at cycle   6 NSaved=   6.
 NSaved= 6 IEnMin= 6 EnMin= -287.359238329176     IErMin= 6 ErrMin= 7.10D-08
 ErrMax= 7.10D-08  0.00D+00 EMaxC= 1.00D-01 BMatC= 2.29D-12 BMatP= 2.26D-11
 IDIUse=1 WtCom= 1.00D+00 WtEn= 0.00D+00
 Coeff-Com: -0.617D-02-0.439D-02 0.362D-01 0.938D-01 0.297D+00 0.583D+00
 Coeff:     -0.617D-02-0.439D-02 0.362D-01 0.938D-01 0.297D+00 0.583D+00
 Gap=     0.224 Goal=   None    Shift=    0.000
 RMSDP=6.15D-09 MaxDP=1.37D-07 DE=-1.85D-11 OVMax= 4.38D-07

 SCF Done:  E(RPBE1PBE) =  -287.359238329     A.U. after   12 cycles
            NFock= 12  Conv=0.61D-08     -V/T= 2.0053
 KE= 2.858445481880D+02 PE=-1.207023291284D+03 EE= 3.641358209789D+02
 Leave Link  502 at Wed Dec 18 13:28:01 2019, MaxMem=  6710886400 cpu:       209.6
 (Enter /usr/local/g09/l601.exe)
 Copying SCF densities to generalized density rwf, IOpCl= 0 IROHF=0.

 **********************************************************************

            Population analysis using the SCF density.

 **********************************************************************

 Orbital symmetries:
       Occupied  (A) (A) (A) (A) (A) (A) (A) (A) (A) (A) (A) (A)
                 (A) (A) (A) (A) (A) (A) (A) (A) (A) (A) (A) (A)
                 (A)
       Virtual   (A) (A) (A) (A) (A) (A) (A) (A) (A) (A) (A) (A)
                 (A) (A) (A) (A) (A) (A) (A) (A) (A) (A) (A) (A)
                 (A) (A) (A) (A) (A) (A) (A) (A) (A) (A) (A) (A)
                 (A) (A) (A) (A) (A) (A) (A) (A) (A) (A) (A) (A)
                 (A) (A) (A) (A) (A) (A) (A) (A) (A) (A) (A) (A)
                 (A) (A) (A) (A) (A) (A) (A) (A) (A) (A) (A) (A)
                 (A) (A) (A) (A) (A) (A) (A) (A) (A) (A) (A) (A)
                 (A) (A) (A) (A) (A) (A) (A) (A) (A) (A) (A) (A)
                 (A) (A) (A) (A) (A) (A) (A) (A) (A) (A) (A) (A)
                 (A) (A) (A) (A) (A) (A) (A) (A) (A) (A) (A) (A)
                 (A) (A) (A) (A) (A) (A) (A) (A) (A) (A) (A) (A)
                 (A) (A) (A) (A) (A) (A) (A) (A) (A) (A) (A) (A)
                 (A) (A) (A) (A) (A) (A) (A) (A) (A) (A) (A) (A)
                 (A) (A) (A) (A) (A) (A) (A) (A) (A) (A) (A) (A)
                 (A) (A) (A) (A) (A) (A) (A) (A) (A) (A) (A) (A)
                 (A) (A) (A) (A) (A) (A) (A) (A) (A) (A) (A) (A)
                 (A) (A) (A) (A) (A) (A) (A) (A) (A) (A) (A) (A)
                 (A) (A) (A) (A) (A) (A) (A) (A) (A) (A) (A) (A)
                 (A) (A) (A) (A) (A) (A) (A) (A) (A) (A) (A) (A)
                 (A) (A) (A) (A) (A) (A)
 The electronic state is 1-A.
 Alpha  occ. eigenvalues --  -14.38056 -10.26723 -10.22808 -10.22769 -10.22480
 Alpha  occ. eigenvalues --  -10.22295 -10.22078  -0.93130  -0.86146  -0.76888
 Alpha  occ. eigenvalues --   -0.74946  -0.63084  -0.61350  -0.53772  -0.51176
 Alpha  occ. eigenvalues --   -0.48778  -0.45244  -0.44193  -0.43527  -0.38842
 Alpha  occ. eigenvalues --   -0.36827  -0.35893  -0.31370  -0.26536  -0.23370
 Alpha virt. eigenvalues --   -0.00980   0.00184   0.04689   0.06590   0.08407
 Alpha virt. eigenvalues --    0.10415   0.11050   0.13214   0.14388   0.14966
 Alpha virt. eigenvalues --    0.16380   0.19688   0.21951   0.22635   0.23229
 Alpha virt. eigenvalues --    0.24341   0.24617   0.26084   0.26458   0.27349
 Alpha virt. eigenvalues --    0.28237   0.32305   0.32939   0.34065   0.34698
 Alpha virt. eigenvalues --    0.35459   0.36849   0.38799   0.39579   0.40497
 Alpha virt. eigenvalues --    0.42364   0.43228   0.44433   0.45613   0.46875
 Alpha virt. eigenvalues --    0.47281   0.47822   0.49183   0.49541   0.50818
 Alpha virt. eigenvalues --    0.51842   0.53178   0.54643   0.57839   0.59756
 Alpha virt. eigenvalues --    0.62659   0.66183   0.66687   0.68696   0.69847
 Alpha virt. eigenvalues --    0.72506   0.74111   0.74798   0.76269   0.77310
 Alpha virt. eigenvalues --    0.81261   0.84074   0.86079   0.87363   0.89228
 Alpha virt. eigenvalues --    0.90338   1.00640   1.01178   1.02906   1.04280
 Alpha virt. eigenvalues --    1.05711   1.08095   1.12689   1.14836   1.17572
 Alpha virt. eigenvalues --    1.19859   1.20870   1.22344   1.22577   1.25321
 Alpha virt. eigenvalues --    1.28105   1.29059   1.31922   1.35759   1.37595
 Alpha virt. eigenvalues --    1.39977   1.41445   1.43831   1.45944   1.46717
 Alpha virt. eigenvalues --    1.49012   1.51067   1.53229   1.56318   1.57492
 Alpha virt. eigenvalues --    1.61321   1.62301   1.64800   1.68481   1.69137
 Alpha virt. eigenvalues --    1.71110   1.71593   1.72953   1.74150   1.76244
 Alpha virt. eigenvalues --    1.77257   1.86458   1.90029   1.90699   1.92110
 Alpha virt. eigenvalues --    1.98289   1.99655   2.00352   2.05354   2.05906
 Alpha virt. eigenvalues --    2.09339   2.10571   2.12178   2.16515   2.18230
 Alpha virt. eigenvalues --    2.22056   2.24117   2.26136   2.28361   2.30295
 Alpha virt. eigenvalues --    2.41684   2.45233   2.47669   2.52588   2.53612
 Alpha virt. eigenvalues --    2.54026   2.56073   2.59490   2.61505   2.62664
 Alpha virt. eigenvalues --    2.63357   2.67292   2.68057   2.69187   2.69814
 Alpha virt. eigenvalues --    2.71342   2.72500   2.75169   2.77503   2.78053
 Alpha virt. eigenvalues --    2.78891   2.83658   2.84110   2.86963   2.87573
 Alpha virt. eigenvalues --    2.89590   2.90790   2.93282   2.94254   2.95492
 Alpha virt. eigenvalues --    3.01645   3.07613   3.10573   3.11826   3.13063
 Alpha virt. eigenvalues --    3.14627   3.15147   3.15508   3.16903   3.19957
 Alpha virt. eigenvalues --    3.23585   3.25066   3.25803   3.26770   3.27563
 Alpha virt. eigenvalues --    3.33443   3.35505   3.36871   3.38112   3.38656
 Alpha virt. eigenvalues --    3.40719   3.44493   3.46955   3.48352   3.49165
 Alpha virt. eigenvalues --    3.50685   3.52954   3.55434   3.61437   3.67744
 Alpha virt. eigenvalues --    3.71152   3.73262   3.76860   3.84779   3.87176
 Alpha virt. eigenvalues --    3.90738   3.97762   4.00614   4.03938   4.06436
 Alpha virt. eigenvalues --    4.09426   4.10466   4.10991   4.16720   4.19170
 Alpha virt. eigenvalues --    4.19765   4.21592   4.22779   4.27647   4.30567
 Alpha virt. eigenvalues --    4.30890   4.36531   4.37920   4.49390   4.58504
 Alpha virt. eigenvalues --    4.66180   4.66986   4.68778   4.71785   4.78965
 Alpha virt. eigenvalues --    4.79564   4.84406   4.89121   4.94197   4.96033
 Alpha virt. eigenvalues --    5.06165   5.08512   5.17791   5.23594   5.23899
 Alpha virt. eigenvalues --    5.27137   5.38686   5.45954   5.55239   5.61962
 Alpha virt. eigenvalues --    5.82396   5.91706  22.12573  22.63770  22.66519
 Alpha virt. eigenvalues --   22.76609  22.79172  23.17878  32.09479
          Condensed to atoms (all electrons):
               1          2          3          4          5          6
     1  C    5.027408   0.413173   0.488277  -0.051982   0.012256   0.012290
     2  H    0.413173   0.557361  -0.029419  -0.008258   0.008402  -0.000280
     3  C    0.488277  -0.029419   4.814997   0.425457   0.503890  -0.054611
     4  H   -0.051982  -0.008258   0.425457   0.559417  -0.054379  -0.007716
     5  C    0.012256   0.008402   0.503890  -0.054379   4.880395   0.427659
     6  H    0.012290  -0.000280  -0.054611  -0.007716   0.427659   0.560521
     7  C   -0.092484  -0.001346   0.006799   0.010726   0.487042  -0.053744
     8  H   -0.001870   0.000078   0.010003  -0.000326  -0.052907  -0.007494
     9  C   -0.004012   0.007498  -0.068282  -0.002372   0.010336   0.011562
    10  H    0.007931  -0.000402  -0.001213   0.000089   0.009115  -0.000268
    11  C    0.470767  -0.057063  -0.011635   0.013229  -0.082866  -0.002491
    12  N   -0.049543  -0.000694   0.001909  -0.000475   0.004386   0.000052
    13  H    0.009445   0.006378   0.001119  -0.000078   0.000180  -0.000005
    14  H    0.006370   0.000187  -0.000618   0.000018   0.000141  -0.000005
               7          8          9         10         11         12
     1  C   -0.092484  -0.001870  -0.004012   0.007931   0.470767  -0.049543
     2  H   -0.001346   0.000078   0.007498  -0.000402  -0.057063  -0.000694
     3  C    0.006799   0.010003  -0.068282  -0.001213  -0.011635   0.001909
     4  H    0.010726  -0.000326  -0.002372   0.000089   0.013229  -0.000475
     5  C    0.487042  -0.052907   0.010336   0.009115  -0.082866   0.004386
     6  H   -0.053744  -0.007494   0.011562  -0.000268  -0.002491   0.000052
     7  C    4.886521   0.428052   0.458779  -0.042938  -0.015599   0.000633
     8  H    0.428052   0.557346  -0.054476  -0.008354   0.012297  -0.000234
     9  C    0.458779  -0.054476   5.017984   0.421818   0.505409  -0.001110
    10  H   -0.042938  -0.008354   0.421818   0.543973  -0.048434   0.001297
    11  C   -0.015599   0.012297   0.505409  -0.048434   4.770541   0.247580
    12  N    0.000633  -0.000234  -0.001110   0.001297   0.247580   6.513440
    13  H   -0.001242   0.000028   0.001726  -0.000257  -0.053759   0.378766
    14  H   -0.000154   0.000007  -0.016412   0.000670  -0.033961   0.369964
              13         14
     1  C    0.009445   0.006370
     2  H    0.006378   0.000187
     3  C    0.001119  -0.000618
     4  H   -0.000078   0.000018
     5  C    0.000180   0.000141
     6  H   -0.000005  -0.000005
     7  C   -0.001242  -0.000154
     8  H    0.000028   0.000007
     9  C    0.001726  -0.016412
    10  H   -0.000257   0.000670
    11  C   -0.053759  -0.033961
    12  N    0.378766   0.369964
    13  H    0.473718  -0.035495
    14  H   -0.035495   0.471326
 Mulliken charges:
               1
     1  C   -0.248025
     2  H    0.104387
     3  C   -0.086672
     4  H    0.116650
     5  C   -0.153651
     6  H    0.114529
     7  C   -0.071046
     8  H    0.117849
     9  C   -0.288446
    10  H    0.116972
    11  C    0.285986
    12  N   -0.465971
    13  H    0.219477
    14  H    0.237962
 Sum of Mulliken charges =   0.00000
 Mulliken charges with hydrogens summed into heavy atoms:
               1
     1  C   -0.143639
     3  C    0.029978
     5  C   -0.039122
     7  C    0.046803
     9  C   -0.171474
    11  C    0.285986
    12  N   -0.008533
 Electronic spatial extent (au):  <R**2>=            694.7246
 Charge=              0.0000 electrons
 Dipole moment (field-independent basis, Debye):
    X=              0.3560    Y=              0.6328    Z=              1.1709  Tot=              1.3777
 Quadrupole moment (field-independent basis, Debye-Ang):
   XX=            -37.1627   YY=            -36.6402   ZZ=            -45.5918
   XY=              2.2312   XZ=              3.6157   YZ=             -0.9563
 Traceless Quadrupole moment (field-independent basis, Debye-Ang):
   XX=              2.6355   YY=              3.1580   ZZ=             -5.7935
   XY=              2.2312   XZ=              3.6157   YZ=             -0.9563
 Octapole moment (field-independent basis, Debye-Ang**2):
  XXX=              4.2185  YYY=              0.7321  ZZZ=              1.5601  XYY=              2.4389
  XXY=              6.6416  XXZ=             11.2848  XZZ=              5.0250  YZZ=             -0.3350
  YYZ=              0.3543  XYZ=             -2.9333
 Hexadecapole moment (field-independent basis, Debye-Ang**3):
 XXXX=           -538.1658 YYYY=           -279.0201 ZZZZ=            -54.7086 XXXY=             20.7205
 XXXZ=             32.5515 YYYX=              3.5221 YYYZ=             -0.3768 ZZZX=              5.0620
 ZZZY=             -1.2687 XXYY=           -130.3736 XXZZ=           -111.9289 YYZZ=            -66.6105
 XXYZ=             -7.8294 YYXZ=              1.2917 ZZXY=             -0.6373
 N-N= 2.696836837879D+02 E-N=-1.207023293325D+03  KE= 2.858445481880D+02
 No NMR shielding tensors so no spin-rotation constants.
 Leave Link  601 at Wed Dec 18 13:28:02 2019, MaxMem=  6710886400 cpu:         7.5
 (Enter /usr/local/g09/l607.exe)
 ******************************Gaussian NBO Version 3.1******************************
             N A T U R A L   A T O M I C   O R B I T A L   A N D
          N A T U R A L   B O N D   O R B I T A L   A N A L Y S I S
 ******************************Gaussian NBO Version 3.1******************************

       /RESON  / : Allow strongly delocalized NBO set
       /SKIPBO / : Skip NBO transformation step
       /ARCHIVE/ : Write the archive file to LFN 47
       /BNDIDX / : Print bond indices based on the NAO density matrix
       /FILE   / : Set to PHNH2                                               

 Analyzing the SCF density

 Job title: PhNH2                                                           

 Storage needed:    202399 in NPA (6710885308 available)


 NATURAL POPULATIONS:  Natural atomic orbital occupancies 
                                                          
   NAO  Atom  No  lang   Type(AO)    Occupancy      Energy
 ----------------------------------------------------------
     1    C    1  S      Cor( 1S)     1.99911     -10.06634
     2    C    1  S      Val( 2S)     0.98080      -0.22451
     3    C    1  S      Ryd( 3S)     0.00134       1.09760
     4    C    1  S      Ryd( 4S)     0.00017       1.45902
     5    C    1  S      Ryd( 5S)     0.00001      21.51524
     6    C    1  px     Val( 2p)     1.08929      -0.06348
     7    C    1  px     Ryd( 3p)     0.00374       1.09816
     8    C    1  px     Ryd( 4p)     0.00038       2.29758
     9    C    1  py     Val( 2p)     1.12621      -0.05972
    10    C    1  py     Ryd( 3p)     0.00305       1.10761
    11    C    1  py     Ryd( 4p)     0.00029       2.26591
    12    C    1  pz     Val( 2p)     1.04486      -0.11548
    13    C    1  pz     Ryd( 3p)     0.00136       0.68152
    14    C    1  pz     Ryd( 4p)     0.00054       1.32535
    15    C    1  dxy    Ryd( 3d)     0.00192       1.84947
    16    C    1  dxy    Ryd( 4d)     0.00078       3.58282
    17    C    1  dxz    Ryd( 3d)     0.00019       1.37316
    18    C    1  dxz    Ryd( 4d)     0.00024       2.93736
    19    C    1  dyz    Ryd( 3d)     0.00031       1.32537
    20    C    1  dyz    Ryd( 4d)     0.00011       2.87540
    21    C    1  dx2y2  Ryd( 3d)     0.00202       1.74331
    22    C    1  dx2y2  Ryd( 4d)     0.00024       3.43341
    23    C    1  dz2    Ryd( 3d)     0.00103       1.56468
    24    C    1  dz2    Ryd( 4d)     0.00006       3.33099
    25    C    1  f(0)   Ryd( 4f)     0.00032       3.32688
    26    C    1  f(C1)  Ryd( 4f)     0.00018       3.58596
    27    C    1  f(S1)  Ryd( 4f)     0.00023       3.52463
    28    C    1  f(C2)  Ryd( 4f)     0.00001       3.46412
    29    C    1  f(S2)  Ryd( 4f)     0.00002       3.38520
    30    C    1  f(C3)  Ryd( 4f)     0.00016       4.36637
    31    C    1  f(S3)  Ryd( 4f)     0.00007       4.02146

    32    H    2  S      Val( 1S)     0.78982       0.03781
    33    H    2  S      Ryd( 2S)     0.00066       1.20647
    34    H    2  S      Ryd( 3S)     0.00018       1.59534
    35    H    2  px     Ryd( 2p)     0.00020       2.89384
    36    H    2  py     Ryd( 2p)     0.00040       3.01458
    37    H    2  pz     Ryd( 2p)     0.00013       2.19942

    38    C    3  S      Cor( 1S)     1.99926     -10.07132
    39    C    3  S      Val( 2S)     0.98206      -0.22410
    40    C    3  S      Ryd( 3S)     0.00116       0.93906
    41    C    3  S      Ryd( 4S)     0.00019       1.67549
    42    C    3  S      Ryd( 5S)     0.00000      21.47673
    43    C    3  px     Val( 2p)     1.06467      -0.05151
    44    C    3  px     Ryd( 3p)     0.00376       1.03842
    45    C    3  px     Ryd( 4p)     0.00026       2.22673
    46    C    3  py     Val( 2p)     1.14167      -0.05471
    47    C    3  py     Ryd( 3p)     0.00443       1.14389
    48    C    3  py     Ryd( 4p)     0.00018       2.12497
    49    C    3  pz     Val( 2p)     0.98976      -0.11016
    50    C    3  pz     Ryd( 3p)     0.00116       0.72037
    51    C    3  pz     Ryd( 4p)     0.00036       1.24168
    52    C    3  dxy    Ryd( 3d)     0.00139       1.83984
    53    C    3  dxy    Ryd( 4d)     0.00068       3.56553
    54    C    3  dxz    Ryd( 3d)     0.00014       1.35294
    55    C    3  dxz    Ryd( 4d)     0.00023       2.97145
    56    C    3  dyz    Ryd( 3d)     0.00025       1.27791
    57    C    3  dyz    Ryd( 4d)     0.00017       2.88496
    58    C    3  dx2y2  Ryd( 3d)     0.00189       1.69412
    59    C    3  dx2y2  Ryd( 4d)     0.00063       3.46175
    60    C    3  dz2    Ryd( 3d)     0.00082       1.54713
    61    C    3  dz2    Ryd( 4d)     0.00009       3.34582
    62    C    3  f(0)   Ryd( 4f)     0.00026       3.32166
    63    C    3  f(C1)  Ryd( 4f)     0.00015       3.58342
    64    C    3  f(S1)  Ryd( 4f)     0.00021       3.51081
    65    C    3  f(C2)  Ryd( 4f)     0.00000       3.44390
    66    C    3  f(S2)  Ryd( 4f)     0.00001       3.37398
    67    C    3  f(C3)  Ryd( 4f)     0.00010       4.35067
    68    C    3  f(S3)  Ryd( 4f)     0.00005       4.01240

    69    H    4  S      Val( 1S)     0.78522       0.04970
    70    H    4  S      Ryd( 2S)     0.00045       0.97240
    71    H    4  S      Ryd( 3S)     0.00018       1.79678
    72    H    4  px     Ryd( 2p)     0.00019       2.85228
    73    H    4  py     Ryd( 2p)     0.00038       2.99902
    74    H    4  pz     Ryd( 2p)     0.00011       2.18522

    75    C    5  S      Cor( 1S)     1.99925     -10.06486
    76    C    5  S      Val( 2S)     0.98117      -0.22119
    77    C    5  S      Ryd( 3S)     0.00103       0.97518
    78    C    5  S      Ryd( 4S)     0.00017       1.46417
    79    C    5  S      Ryd( 5S)     0.00000      21.62332
    80    C    5  px     Val( 2p)     1.16898      -0.05367
    81    C    5  px     Ryd( 3p)     0.00443       1.17572
    82    C    5  px     Ryd( 4p)     0.00018       2.07305
    83    C    5  py     Val( 2p)     1.04362      -0.05201
    84    C    5  py     Ryd( 3p)     0.00346       0.98617
    85    C    5  py     Ryd( 4p)     0.00035       2.21706
    86    C    5  pz     Val( 2p)     1.02920      -0.10879
    87    C    5  pz     Ryd( 3p)     0.00163       0.68467
    88    C    5  pz     Ryd( 4p)     0.00039       1.28092
    89    C    5  dxy    Ryd( 3d)     0.00206       1.66589
    90    C    5  dxy    Ryd( 4d)     0.00052       3.35879
    91    C    5  dxz    Ryd( 3d)     0.00035       1.28514
    92    C    5  dxz    Ryd( 4d)     0.00014       2.81616
    93    C    5  dyz    Ryd( 3d)     0.00005       1.41685
    94    C    5  dyz    Ryd( 4d)     0.00024       2.97231
    95    C    5  dx2y2  Ryd( 3d)     0.00114       1.93028
    96    C    5  dx2y2  Ryd( 4d)     0.00073       3.59854
    97    C    5  dz2    Ryd( 3d)     0.00094       1.57446
    98    C    5  dz2    Ryd( 4d)     0.00007       3.31240
    99    C    5  f(0)   Ryd( 4f)     0.00028       3.32430
   100    C    5  f(C1)  Ryd( 4f)     0.00023       3.49348
   101    C    5  f(S1)  Ryd( 4f)     0.00013       3.60354
   102    C    5  f(C2)  Ryd( 4f)     0.00001       3.32953
   103    C    5  f(S2)  Ryd( 4f)     0.00000       3.49014
   104    C    5  f(C3)  Ryd( 4f)     0.00013       4.35735
   105    C    5  f(S3)  Ryd( 4f)     0.00006       3.99921

   106    H    6  S      Val( 1S)     0.78544       0.05257
   107    H    6  S      Ryd( 2S)     0.00033       0.96474
   108    H    6  S      Ryd( 3S)     0.00018       1.82921
   109    H    6  px     Ryd( 2p)     0.00046       3.06648
   110    H    6  py     Ryd( 2p)     0.00009       2.78858
   111    H    6  pz     Ryd( 2p)     0.00012       2.18974

   112    C    7  S      Cor( 1S)     1.99926     -10.07102
   113    C    7  S      Val( 2S)     0.98282      -0.22387
   114    C    7  S      Ryd( 3S)     0.00111       0.93620
   115    C    7  S      Ryd( 4S)     0.00019       1.64735
   116    C    7  S      Ryd( 5S)     0.00000      21.50414
   117    C    7  px     Val( 2p)     1.06982      -0.05053
   118    C    7  px     Ryd( 3p)     0.00380       1.05094
   119    C    7  px     Ryd( 4p)     0.00027       2.22191
   120    C    7  py     Val( 2p)     1.13605      -0.05385
   121    C    7  py     Ryd( 3p)     0.00423       1.14092
   122    C    7  py     Ryd( 4p)     0.00019       2.12911
   123    C    7  pz     Val( 2p)     0.98837      -0.10960
   124    C    7  pz     Ryd( 3p)     0.00114       0.72564
   125    C    7  pz     Ryd( 4p)     0.00036       1.23670
   126    C    7  dxy    Ryd( 3d)     0.00135       1.86599
   127    C    7  dxy    Ryd( 4d)     0.00074       3.58872
   128    C    7  dxz    Ryd( 3d)     0.00015       1.34592
   129    C    7  dxz    Ryd( 4d)     0.00021       2.97009
   130    C    7  dyz    Ryd( 3d)     0.00023       1.28058
   131    C    7  dyz    Ryd( 4d)     0.00017       2.89599
   132    C    7  dx2y2  Ryd( 3d)     0.00196       1.66614
   133    C    7  dx2y2  Ryd( 4d)     0.00059       3.44589
   134    C    7  dz2    Ryd( 3d)     0.00079       1.54569
   135    C    7  dz2    Ryd( 4d)     0.00008       3.34900
   136    C    7  f(0)   Ryd( 4f)     0.00026       3.32144
   137    C    7  f(C1)  Ryd( 4f)     0.00015       3.58036
   138    C    7  f(S1)  Ryd( 4f)     0.00020       3.51678
   139    C    7  f(C2)  Ryd( 4f)     0.00000       3.45647
   140    C    7  f(S2)  Ryd( 4f)     0.00001       3.36098
   141    C    7  f(C3)  Ryd( 4f)     0.00010       4.35029
   142    C    7  f(S3)  Ryd( 4f)     0.00005       4.00836

   143    H    8  S      Val( 1S)     0.78473       0.05083
   144    H    8  S      Ryd( 2S)     0.00043       0.96338
   145    H    8  S      Ryd( 3S)     0.00018       1.80753
   146    H    8  px     Ryd( 2p)     0.00020       2.86803
   147    H    8  py     Ryd( 2p)     0.00037       2.98867
   148    H    8  pz     Ryd( 2p)     0.00011       2.18618

   149    C    9  S      Cor( 1S)     1.99911     -10.06453
   150    C    9  S      Val( 2S)     0.98068      -0.22206
   151    C    9  S      Ryd( 3S)     0.00129       1.10582
   152    C    9  S      Ryd( 4S)     0.00017       1.49664
   153    C    9  S      Ryd( 5S)     0.00001      21.50608
   154    C    9  px     Val( 2p)     1.08046      -0.05884
   155    C    9  px     Ryd( 3p)     0.00373       1.09889
   156    C    9  px     Ryd( 4p)     0.00038       2.26663
   157    C    9  py     Val( 2p)     1.13679      -0.05874
   158    C    9  py     Ryd( 3p)     0.00327       1.12308
   159    C    9  py     Ryd( 4p)     0.00026       2.24619
   160    C    9  pz     Val( 2p)     1.03335      -0.11203
   161    C    9  pz     Ryd( 3p)     0.00144       0.68668
   162    C    9  pz     Ryd( 4p)     0.00055       1.33042
   163    C    9  dxy    Ryd( 3d)     0.00203       1.81397
   164    C    9  dxy    Ryd( 4d)     0.00075       3.56669
   165    C    9  dxz    Ryd( 3d)     0.00017       1.37482
   166    C    9  dxz    Ryd( 4d)     0.00025       2.95359
   167    C    9  dyz    Ryd( 3d)     0.00036       1.31850
   168    C    9  dyz    Ryd( 4d)     0.00012       2.87641
   169    C    9  dx2y2  Ryd( 3d)     0.00189       1.76355
   170    C    9  dx2y2  Ryd( 4d)     0.00027       3.47490
   171    C    9  dz2    Ryd( 3d)     0.00101       1.56144
   172    C    9  dz2    Ryd( 4d)     0.00006       3.34186
   173    C    9  f(0)   Ryd( 4f)     0.00031       3.33002
   174    C    9  f(C1)  Ryd( 4f)     0.00016       3.59111
   175    C    9  f(S1)  Ryd( 4f)     0.00023       3.52493
   176    C    9  f(C2)  Ryd( 4f)     0.00001       3.45738
   177    C    9  f(S2)  Ryd( 4f)     0.00001       3.39698
   178    C    9  f(C3)  Ryd( 4f)     0.00015       4.38326
   179    C    9  f(S3)  Ryd( 4f)     0.00006       4.02538

   180    H   10  S      Val( 1S)     0.78015       0.04836
   181    H   10  S      Ryd( 2S)     0.00061       1.20387
   182    H   10  S      Ryd( 3S)     0.00019       1.59019
   183    H   10  px     Ryd( 2p)     0.00020       2.88637
   184    H   10  py     Ryd( 2p)     0.00039       3.02809
   185    H   10  pz     Ryd( 2p)     0.00012       2.20686

   186    C   11  S      Cor( 1S)     1.99895     -10.12102
   187    C   11  S      Val( 2S)     0.90567      -0.20970
   188    C   11  S      Ryd( 3S)     0.00127       1.21320
   189    C   11  S      Ryd( 4S)     0.00015       1.47190
   190    C   11  S      Ryd( 5S)     0.00001      21.60394
   191    C   11  px     Val( 2p)     0.88647      -0.04899
   192    C   11  px     Ryd( 3p)     0.00404       1.25375
   193    C   11  px     Ryd( 4p)     0.00023       1.90003
   194    C   11  py     Val( 2p)     1.06789      -0.06162
   195    C   11  py     Ryd( 3p)     0.00300       1.14547
   196    C   11  py     Ryd( 4p)     0.00026       2.01235
   197    C   11  pz     Val( 2p)     0.97775      -0.11195
   198    C   11  pz     Ryd( 3p)     0.00169       0.74424
   199    C   11  pz     Ryd( 4p)     0.00040       1.26783
   200    C   11  dxy    Ryd( 3d)     0.00239       1.90934
   201    C   11  dxy    Ryd( 4d)     0.00096       3.42184
   202    C   11  dxz    Ryd( 3d)     0.00049       1.21008
   203    C   11  dxz    Ryd( 4d)     0.00053       3.20546
   204    C   11  dyz    Ryd( 3d)     0.00003       1.23413
   205    C   11  dyz    Ryd( 4d)     0.00036       3.23912
   206    C   11  dx2y2  Ryd( 3d)     0.00156       2.14046
   207    C   11  dx2y2  Ryd( 4d)     0.00058       3.58798
   208    C   11  dz2    Ryd( 3d)     0.00034       1.64949
   209    C   11  dz2    Ryd( 4d)     0.00014       3.48700
   210    C   11  f(0)   Ryd( 4f)     0.00020       3.45428
   211    C   11  f(C1)  Ryd( 4f)     0.00011       3.60660
   212    C   11  f(S1)  Ryd( 4f)     0.00012       3.62182
   213    C   11  f(C2)  Ryd( 4f)     0.00002       3.54070
   214    C   11  f(S2)  Ryd( 4f)     0.00000       3.52141
   215    C   11  f(C3)  Ryd( 4f)     0.00004       4.39975
   216    C   11  f(S3)  Ryd( 4f)     0.00006       4.30386

   217    N   12  S      Cor( 1S)     1.99957     -14.20243
   218    N   12  S      Val( 2S)     1.41661      -0.60540
   219    N   12  S      Ryd( 3S)     0.00048       1.46083
   220    N   12  S      Ryd( 4S)     0.00008       2.75847
   221    N   12  S      Ryd( 5S)     0.00000      31.27976
   222    N   12  px     Val( 2p)     1.27050      -0.19716
   223    N   12  px     Ryd( 3p)     0.00161       0.62241
   224    N   12  px     Ryd( 4p)     0.00034       3.55429
   225    N   12  py     Val( 2p)     1.46129      -0.20867
   226    N   12  py     Ryd( 3p)     0.00284       0.76955
   227    N   12  py     Ryd( 4p)     0.00014       3.03203
   228    N   12  pz     Val( 2p)     1.61987      -0.22741
   229    N   12  pz     Ryd( 3p)     0.00351       0.60121
   230    N   12  pz     Ryd( 4p)     0.00014       2.53178
   231    N   12  dxy    Ryd( 3d)     0.00082       1.52796
   232    N   12  dxy    Ryd( 4d)     0.00011       4.77947
   233    N   12  dxz    Ryd( 3d)     0.00185       1.37728
   234    N   12  dxz    Ryd( 4d)     0.00006       4.67415
   235    N   12  dyz    Ryd( 3d)     0.00357       1.29868
   236    N   12  dyz    Ryd( 4d)     0.00005       4.58577
   237    N   12  dx2y2  Ryd( 3d)     0.00503       1.56443
   238    N   12  dx2y2  Ryd( 4d)     0.00001       4.86228
   239    N   12  dz2    Ryd( 3d)     0.00576       1.51895
   240    N   12  dz2    Ryd( 4d)     0.00004       4.76814
   241    N   12  f(0)   Ryd( 4f)     0.00002       4.36770
   242    N   12  f(C1)  Ryd( 4f)     0.00011       4.63773
   243    N   12  f(S1)  Ryd( 4f)     0.00019       4.67535
   244    N   12  f(C2)  Ryd( 4f)     0.00003       4.37310
   245    N   12  f(S2)  Ryd( 4f)     0.00008       4.34765
   246    N   12  f(C3)  Ryd( 4f)     0.00012       4.82605
   247    N   12  f(S3)  Ryd( 4f)     0.00003       4.77223

   248    H   13  S      Val( 1S)     0.64023       0.08663
   249    H   13  S      Ryd( 2S)     0.00063       0.84628
   250    H   13  S      Ryd( 3S)     0.00028       1.82471
   251    H   13  px     Ryd( 2p)     0.00012       2.46411
   252    H   13  py     Ryd( 2p)     0.00018       2.97305
   253    H   13  pz     Ryd( 2p)     0.00022       2.20772

   254    H   14  S      Val( 1S)     0.63405       0.08526
   255    H   14  S      Ryd( 2S)     0.00059       0.59628
   256    H   14  S      Ryd( 3S)     0.00032       2.02254
   257    H   14  px     Ryd( 2p)     0.00019       2.40297
   258    H   14  py     Ryd( 2p)     0.00014       2.39139
   259    H   14  pz     Ryd( 2p)     0.00030       2.78188

 WARNING:  1 low occupancy (<1.9990e) core orbital  found on  C   11

 WARNING:  Population inversion found on atom  C    1
           Population inversion found on atom  C    3
           Population inversion found on atom  C    5
           Population inversion found on atom  C    7
           Population inversion found on atom  C    9
           Population inversion found on atom  C   11


 Summary of Natural Population Analysis:                  
                                                          
                                       Natural Population 
                Natural  -----------------------------------------------
    Atom  No    Charge         Core      Valence    Rydberg      Total
 -----------------------------------------------------------------------
      C    1   -0.25905      1.99911     4.24117    0.01877     6.25905
      H    2    0.20861      0.00000     0.78982    0.00157     0.79139
      C    3   -0.19598      1.99926     4.17816    0.01856     6.19598
      H    4    0.21347      0.00000     0.78522    0.00131     0.78653
      C    5   -0.24093      1.99925     4.22297    0.01871     6.24093
      H    6    0.21338      0.00000     0.78544    0.00118     0.78662
      C    7   -0.19468      1.99926     4.17706    0.01836     6.19468
      H    8    0.21398      0.00000     0.78473    0.00129     0.78602
      C    9   -0.24931      1.99911     4.23127    0.01893     6.24931
      H   10    0.21835      0.00000     0.78015    0.00150     0.78165
      C   11    0.14430      1.99895     3.83779    0.01897     5.85570
      N   12   -0.79488      1.99957     5.76828    0.02702     7.79488
      H   13    0.35834      0.00000     0.64023    0.00143     0.64166
      H   14    0.36440      0.00000     0.63405    0.00155     0.63560
 =======================================================================
   * Total *    0.00000     13.99451    35.85634    0.14915    50.00000

                                 Natural Population      
 --------------------------------------------------------
   Core                      13.99451 ( 99.9608% of  14)
   Valence                   35.85634 ( 99.6009% of  36)
   Natural Minimal Basis     49.85085 ( 99.7017% of  50)
   Natural Rydberg Basis      0.14915 (  0.2983% of  50)
 --------------------------------------------------------

    Atom  No          Natural Electron Configuration
 ----------------------------------------------------------------------------
      C    1      [core]2S( 0.98)2p( 3.26)3p( 0.01)3d( 0.01)
      H    2            1S( 0.79)
      C    3      [core]2S( 0.98)2p( 3.20)3p( 0.01)
      H    4            1S( 0.79)
      C    5      [core]2S( 0.98)2p( 3.24)3p( 0.01)
      H    6            1S( 0.79)
      C    7      [core]2S( 0.98)2p( 3.19)3p( 0.01)
      H    8            1S( 0.78)
      C    9      [core]2S( 0.98)2p( 3.25)3p( 0.01)3d( 0.01)
      H   10            1S( 0.78)
      C   11      [core]2S( 0.91)2p( 2.93)3p( 0.01)
      N   12      [core]2S( 1.42)2p( 4.35)3p( 0.01)3d( 0.02)
      H   13            1S( 0.64)
      H   14            1S( 0.63)


 Wiberg bond index matrix in the NAO basis:                                    

     Atom    1       2       3       4       5       6       7       8       9
     ---- ------  ------  ------  ------  ------  ------  ------  ------  ------
   1.  C  0.0000  0.9241  1.4457  0.0032  0.0108  0.0094  0.1110  0.0008  0.0114
   2.  H  0.9241  0.0000  0.0039  0.0026  0.0094  0.0003  0.0010  0.0006  0.0101
   3.  C  1.4457  0.0039  0.0000  0.9238  1.4419  0.0033  0.0091  0.0092  0.1126
   4.  H  0.0032  0.0026  0.9238  0.0000  0.0034  0.0026  0.0092  0.0003  0.0008
   5.  C  0.0108  0.0094  1.4419  0.0034  0.0000  0.9230  1.4372  0.0033  0.0105
   6.  H  0.0094  0.0003  0.0033  0.0026  0.9230  0.0000  0.0033  0.0026  0.0094
   7.  C  0.1110  0.0010  0.0091  0.0092  1.4372  0.0033  0.0000  0.9238  1.4526
   8.  H  0.0008  0.0006  0.0092  0.0003  0.0033  0.0026  0.9238  0.0000  0.0031
   9.  C  0.0114  0.0101  0.1126  0.0008  0.0105  0.0094  1.4526  0.0031  0.0000
  10.  H  0.0101  0.0004  0.0010  0.0006  0.0093  0.0003  0.0038  0.0027  0.9201
  11.  C  1.3946  0.0025  0.0101  0.0083  0.1006  0.0009  0.0099  0.0083  1.3897
  12.  N  0.0371  0.0026  0.0111  0.0008  0.0186  0.0005  0.0105  0.0005  0.0350
  13.  H  0.0019  0.0005  0.0005  0.0000  0.0001  0.0000  0.0004  0.0003  0.0081
  14.  H  0.0103  0.0001  0.0002  0.0001  0.0032  0.0000  0.0002  0.0000  0.0049

     Atom   10      11      12      13      14
     ---- ------  ------  ------  ------  ------
   1.  C  0.0101  1.3946  0.0371  0.0019  0.0103
   2.  H  0.0004  0.0025  0.0026  0.0005  0.0001
   3.  C  0.0010  0.0101  0.0111  0.0005  0.0002
   4.  H  0.0006  0.0083  0.0008  0.0000  0.0001
   5.  C  0.0093  0.1006  0.0186  0.0001  0.0032
   6.  H  0.0003  0.0009  0.0005  0.0000  0.0000
   7.  C  0.0038  0.0099  0.0105  0.0004  0.0002
   8.  H  0.0027  0.0083  0.0005  0.0003  0.0000
   9.  C  0.9201  1.3897  0.0350  0.0081  0.0049
  10.  H  0.0000  0.0027  0.0026  0.0003  0.0001
  11.  C  0.0027  0.0000  1.0658  0.0015  0.0015
  12.  N  0.0026  1.0658  0.0000  0.8594  0.8481
  13.  H  0.0003  0.0015  0.8594  0.0000  0.0002
  14.  H  0.0001  0.0015  0.8481  0.0002  0.0000


 Wiberg bond index, Totals by atom:                                            

     Atom    1
     ---- ------
   1.  C  3.9705
   2.  H  0.9582
   3.  C  3.9724
   4.  H  0.9558
   5.  C  3.9713
   6.  H  0.9556
   7.  C  3.9720
   8.  H  0.9555
   9.  C  3.9684
  10.  H  0.9539
  11.  C  3.9964
  12.  N  2.8925
  13.  H  0.8733
  14.  H  0.8690


 Atom-atom overlap-weighted NAO bond order:                                    

     Atom    1       2       3       4       5       6       7       8       9
     ---- ------  ------  ------  ------  ------  ------  ------  ------  ------
   1.  C  0.0000  0.8004  1.1296 -0.0010  0.0264  0.0035 -0.0116 -0.0007  0.0240
   2.  H  0.8004  0.0000  0.0016 -0.0025  0.0008  0.0000  0.0000  0.0000 -0.0002
   3.  C  1.1296  0.0016  0.0000  0.7934  1.1315 -0.0021  0.0308  0.0036 -0.0116
   4.  H -0.0010 -0.0025  0.7934  0.0000 -0.0012 -0.0008  0.0036 -0.0001 -0.0007
   5.  C  0.0264  0.0008  1.1315 -0.0012  0.0000  0.7928  1.1304 -0.0013  0.0256
   6.  H  0.0035  0.0000 -0.0021 -0.0008  0.7928  0.0000 -0.0022 -0.0008  0.0036
   7.  C -0.0116  0.0000  0.0308  0.0036  1.1304 -0.0022  0.0000  0.7938  1.1298
   8.  H -0.0007  0.0000  0.0036 -0.0001 -0.0013 -0.0008  0.7938  0.0000 -0.0005
   9.  C  0.0240 -0.0002 -0.0116 -0.0007  0.0256  0.0036  1.1298 -0.0005  0.0000
  10.  H  0.0000  0.0000  0.0000  0.0000  0.0008  0.0000  0.0014 -0.0026  0.7975
  11.  C  1.1244 -0.0027  0.0301  0.0034 -0.0134 -0.0002  0.0300  0.0032  1.1224
  12.  N -0.0202 -0.0048  0.0050 -0.0002  0.0004  0.0000  0.0043 -0.0001 -0.0148
  13.  H -0.0071 -0.0036  0.0003  0.0000  0.0000  0.0000  0.0003  0.0000 -0.0016
  14.  H  0.0014  0.0002 -0.0002  0.0000  0.0000  0.0000 -0.0001  0.0000 -0.0039

     Atom   10      11      12      13      14
     ---- ------  ------  ------  ------  ------
   1.  C  0.0000  1.1244 -0.0202 -0.0071  0.0014
   2.  H  0.0000 -0.0027 -0.0048 -0.0036  0.0002
   3.  C  0.0000  0.0301  0.0050  0.0003 -0.0002
   4.  H  0.0000  0.0034 -0.0002  0.0000  0.0000
   5.  C  0.0008 -0.0134  0.0004  0.0000  0.0000
   6.  H  0.0000 -0.0002  0.0000  0.0000  0.0000
   7.  C  0.0014  0.0300  0.0043  0.0003 -0.0001
   8.  H -0.0026  0.0032 -0.0001  0.0000  0.0000
   9.  C  0.7975  1.1224 -0.0148 -0.0016 -0.0039
  10.  H  0.0000 -0.0011 -0.0028 -0.0001  0.0006
  11.  C -0.0011  0.0000  0.8357  0.0016 -0.0046
  12.  N -0.0028  0.8357  0.0000  0.7423  0.7282
  13.  H -0.0001  0.0016  0.7423  0.0000  0.0006
  14.  H  0.0006 -0.0046  0.7282  0.0006  0.0000


 Atom-atom overlap-weighted NAO bond order, Totals by atom:                    

     Atom    1
     ---- ------
   1.  C  3.0689
   2.  H  0.7893
   3.  C  3.1119
   4.  H  0.7939
   5.  C  3.0927
   6.  H  0.7936
   7.  C  3.1103
   8.  H  0.7945
   9.  C  3.0695
  10.  H  0.7936
  11.  C  3.1287
  12.  N  2.2731
  13.  H  0.7326
  14.  H  0.7222


 MO bond order:                                                                

     Atom    1       2       3       4       5       6       7       8       9
     ---- ------  ------  ------  ------  ------  ------  ------  ------  ------
   1.  C  0.0000  1.5269  0.6241  0.0277 -0.0600 -0.0176 -0.2569  0.0092  0.0498
   2.  H  1.5269  0.0000  0.0378 -0.0420  0.1037 -0.0116  0.0297  0.0205  0.1233
   3.  C  0.6241  0.0378  0.0000  0.7798 -0.2958  0.0367 -0.0525 -0.0621 -0.2938
   4.  H  0.0277 -0.0420  0.7798  0.0000 -0.0438 -0.0433  0.0738 -0.0218  0.0112
   5.  C -0.0600  0.1037 -0.2958 -0.0438  0.0000 -0.2156  1.1215 -0.0042 -0.0486
   6.  H -0.0176 -0.0116  0.0367 -0.0433 -0.2156  0.0000 -0.0164 -0.0488 -0.0301
   7.  C -0.2569  0.0297 -0.0525  0.0738  1.1215 -0.0164  0.0000 -0.5654  0.5532
   8.  H  0.0092  0.0205 -0.0621 -0.0218 -0.0042 -0.0488 -0.5654  0.0000  0.0224
   9.  C  0.0498  0.1233 -0.2938  0.0112 -0.0486 -0.0301  0.5532  0.0224  0.0000
  10.  H  0.0055 -0.0145  0.0189  0.0223 -0.0068 -0.0161 -0.0017 -0.0546  0.1385
  11.  C  1.0485  0.0296  0.0125  0.0874 -0.2865  0.0080 -0.1003 -0.0493 -0.1494
  12.  N -0.2741 -0.0346 -0.0207  0.0095  0.0806  0.0037 -0.0918  0.0313 -0.0547
  13.  H -0.0369 -0.0068  0.0143 -0.0017  0.0032  0.0027 -0.0041  0.0153  0.0980
  14.  H -0.0771  0.0112 -0.0218  0.0167  0.0574  0.0061  0.0155  0.0060 -0.1017

     Atom   10      11      12      13      14
     ---- ------  ------  ------  ------  ------
   1.  C  0.0055  1.0485 -0.2741 -0.0369 -0.0771
   2.  H -0.0145  0.0296 -0.0346 -0.0068  0.0112
   3.  C  0.0189  0.0125 -0.0207  0.0143 -0.0218
   4.  H  0.0223  0.0874  0.0095 -0.0017  0.0167
   5.  C -0.0068 -0.2865  0.0806  0.0032  0.0574
   6.  H -0.0161  0.0080  0.0037  0.0027  0.0061
   7.  C -0.0017 -0.1003 -0.0918 -0.0041  0.0155
   8.  H -0.0546 -0.0493  0.0313  0.0153  0.0060
   9.  C  0.1385 -0.1494 -0.0547  0.0980 -0.1017
  10.  H  0.0000  0.0373  0.0079  0.0181  0.0071
  11.  C  0.0373  0.0000 -0.1026  0.0229  0.0078
  12.  N  0.0079 -0.1026  0.0000  1.4012  1.0372
  13.  H  0.0181  0.0229  1.4012  0.0000  0.0042
  14.  H  0.0071  0.0078  1.0372  0.0042  0.0000


 MO atomic valencies:                                                          

     Atom    1
     ---- ------
   1.  C  2.5693
   2.  H  1.7731
   3.  C  0.7773
   4.  H  0.8759
   5.  C  0.4051
   6.  H -0.3422
   7.  C  0.7045
   8.  H -0.7014
   9.  C  0.3182
  10.  H  0.1619
  11.  C  0.5658
  12.  N  1.9931
  13.  H  1.5304
  14.  H  0.9686


 NBO analysis skipped by request.
 Leave Link  607 at Wed Dec 18 13:28:04 2019, MaxMem=  6710886400 cpu:        49.7
 (Enter /usr/local/g09/l701.exe)
 Compute integral first derivatives.
 ... and contract with generalized density number  0.
   1 Symmetry operations used in ECPInt.
 ECPInt:  NShTT=    5565 NPrTT=   16828 LenC2=    5496 LenP2D=   13676.
 LDataN:  DoStor=T MaxTD1= 7 Len=  274
 Leave Link  701 at Wed Dec 18 13:28:05 2019, MaxMem=  6710886400 cpu:        15.1
 (Enter /usr/local/g09/l702.exe)
 L702 exits ... SP integral derivatives will be done elsewhere.
 Leave Link  702 at Wed Dec 18 13:28:05 2019, MaxMem=  6710886400 cpu:         0.4
 (Enter /usr/local/g09/l703.exe)
 Compute integral first derivatives, UseDBF=F ICtDFT=           0.
 Integral derivatives from FoFJK, PRISM(SPDF).
 Calling FoFJK, ICntrl=      2127 FMM=F ISym2X=0 I1Cent= 0 IOpClX= 0 NMat=1 NMatS=1 NMatT=0.
 FoFJK:  IHMeth= 1 ICntrl=    2127 DoSepK=F KAlg= 0 I1Cent=   0 FoldK=F
 IRaf=         0 NMat=   1 IRICut=       1 DoRegI=T DoRafI=F ISym2E= 0.
 FoFCou: FMM=F IPFlag=           0 FMFlag=      100000 FMFlg1=         800
         NFxFlg=           0 DoJE=F BraDBF=F KetDBF=F FulRan=T
[...]
 Iteration  2 RMS(Cart)=  0.00000000 RMS(Int)=  0.00000000
 ITry= 1 IFail=0 DXMaxC= 7.69D-05 DCOld= 1.00D+10 DXMaxT= 3.00D-01 DXLimC= 3.00D+00 Rises=F
 Variable       Old X    -DE/DX   Delta X   Delta X   Delta X     New X
                                 (Linear)    (Quad)   (Total)
    R1        2.05148   0.00000   0.00000   0.00000   0.00000   2.05148
    R2        2.61595   0.00000   0.00000   0.00000   0.00000   2.61595
    R3        2.63894   0.00000   0.00000   0.00000   0.00000   2.63894
    R4        2.04952   0.00000   0.00000   0.00000   0.00000   2.04952
    R5        2.62236   0.00000   0.00000   0.00000   0.00000   2.62236
    R6        2.04679   0.00000   0.00000   0.00000   0.00000   2.04679
    R7        2.62237   0.00000   0.00000   0.00000   0.00000   2.62236
    R8        2.04952   0.00000   0.00000   0.00000   0.00000   2.04952
    R9        2.61595   0.00000   0.00000   0.00000   0.00000   2.61595
   R10        2.05148   0.00000   0.00000   0.00000   0.00000   2.05148
   R11        2.63894   0.00000   0.00000   0.00000   0.00000   2.63894
   R12        2.62018   0.00000   0.00000   0.00001   0.00001   2.62018
   R13        1.90237   0.00000   0.00000   0.00000   0.00000   1.90237
   R14        1.90237   0.00000   0.00000   0.00000   0.00000   1.90237
    A1        2.09473   0.00000   0.00000   0.00000   0.00000   2.09473
    A2        2.08468   0.00000   0.00000   0.00000   0.00000   2.08468
    A3        2.10376   0.00000   0.00000   0.00000   0.00000   2.10376
    A4        2.08024   0.00000   0.00000   0.00000   0.00000   2.08024
    A5        2.10865   0.00000   0.00000   0.00000   0.00000   2.10865
    A6        2.09429   0.00000   0.00000   0.00000   0.00000   2.09429
    A7        2.10473   0.00000   0.00000   0.00000   0.00000   2.10473
    A8        2.07373   0.00000   0.00000   0.00000   0.00000   2.07373
    A9        2.10472   0.00000   0.00000   0.00000   0.00000   2.10473
   A10        2.09428   0.00000   0.00000   0.00000   0.00000   2.09429
   A11        2.10866   0.00000   0.00000   0.00000   0.00000   2.10865
   A12        2.08024   0.00000   0.00000   0.00000   0.00000   2.08024
   A13        2.09473   0.00000   0.00000   0.00000   0.00000   2.09473
   A14        2.10376   0.00000   0.00000   0.00000   0.00000   2.10376
   A15        2.08468   0.00000   0.00000   0.00000   0.00000   2.08468
   A16        2.06780   0.00000   0.00000   0.00000   0.00000   2.06780
   A17        2.10717   0.00000   0.00000   0.00000   0.00000   2.10717
   A18        2.10717   0.00000   0.00000   0.00000   0.00000   2.10717
   A19        2.01366   0.00000   0.00000   0.00000   0.00000   2.01366
   A20        2.01368   0.00000   0.00000  -0.00002  -0.00002   2.01366
   A21        1.96062   0.00000   0.00000  -0.00002  -0.00002   1.96060
    D1       -0.00570   0.00000   0.00000  -0.00001  -0.00001  -0.00571
    D2        3.13681   0.00000   0.00000  -0.00001  -0.00001   3.13680
    D3        3.13993   0.00000   0.00000   0.00000   0.00000   3.13992
    D4       -0.00075   0.00000   0.00000  -0.00001  -0.00001  -0.00075
    D5       -3.13642   0.00000   0.00000   0.00000   0.00000  -3.13641
    D6       -0.04340   0.00000   0.00000   0.00000   0.00000  -0.04340
    D7        0.00116   0.00000   0.00000   0.00000   0.00000   0.00116
    D8        3.09417   0.00000   0.00000   0.00000   0.00000   3.09417
    D9        3.14074   0.00000   0.00000   0.00001   0.00001   3.14075
   D10        0.00031   0.00000   0.00000   0.00000   0.00000   0.00031
   D11        0.00008   0.00000   0.00000   0.00000   0.00000   0.00008
   D12       -3.14036   0.00000   0.00000   0.00000   0.00000  -3.14036
   D13        3.14036   0.00000   0.00000   0.00000   0.00000   3.14036
   D14       -0.00031   0.00000   0.00000   0.00000   0.00000  -0.00031
   D15       -0.00007   0.00000   0.00000   0.00000   0.00000  -0.00008
   D16       -3.14075   0.00000   0.00000   0.00000   0.00000  -3.14075
   D17       -3.13679   0.00000   0.00000  -0.00001  -0.00001  -3.13680
   D18        0.00076   0.00000   0.00000  -0.00001  -0.00001   0.00075
   D19        0.00572   0.00000   0.00000  -0.00001  -0.00001   0.00571
   D20       -3.13992   0.00000   0.00000   0.00000   0.00000  -3.13992
   D21       -0.00117   0.00000   0.00000   0.00001   0.00001  -0.00116
   D22       -3.09418   0.00000   0.00000   0.00001   0.00001  -3.09417
   D23        3.13640   0.00000   0.00000   0.00001   0.00001   3.13641
   D24        0.04339   0.00000   0.00000   0.00001   0.00001   0.04340
   D25        0.42913   0.00000   0.00000   0.00007   0.00007   0.42920
   D26        2.76206   0.00000   0.00000   0.00002   0.00002   2.76208
   D27       -2.76215   0.00000   0.00000   0.00007   0.00007  -2.76208
   D28       -0.42921   0.00000   0.00000   0.00002   0.00002  -0.42920
         Item               Value     Threshold  Converged?
 Maximum Force            0.000002     0.000015     YES
 RMS     Force            0.000000     0.000010     YES
 Maximum Displacement     0.000077     0.000060     NO 
 RMS     Displacement     0.000014     0.000040     YES
 Predicted change in Energy=-7.278839D-11
 GradGradGradGradGradGradGradGradGradGradGradGradGradGradGradGradGradGrad

 Leave Link  103 at Wed Dec 18 13:34:21 2019, MaxMem=  6710886400 cpu:        27.5
 (Enter /usr/local/g09/l9999.exe)
 1\1\GINC-HNODE-IB-38\Freq\RPBE1PBE\def2TZVP\C6H7N1\JZHANGBM\18-Dec-201
 9\0\\#P Geom=AllCheck Guess=TCheck SCRF=Check GenChk RPBE1PBE/def2TZVP
  Freq\\PhNH2\\0,1\C,-0.2136954937,-0.1235179756,-1.2112119107\H,-0.754
 2911384,-0.2036846733,-2.1492160085\C,1.1695219228,-0.0687331769,-1.21
 15512956\H,1.7003635445,-0.1122870828,-2.1563159457\C,1.8769952344,0.0
 394788087,-0.022658476\H,2.9592950267,0.0812672393,-0.0271110128\C,1.1
 731367736,0.0917947793,1.1721411707\H,1.7068428594,0.1752005848,2.1126
 046925\C,-0.2100635894,0.0377478608,1.1833318186\H,-0.7478059916,0.084
 2009731,2.1252426223\C,-0.9255449607,-0.0716751404,-0.0109190471\N,-2.
 3120799345,-0.0698151987,-0.0089389662\H,-2.7451899042,-0.4824119318,-
 0.818635534\H,-2.7426667989,-0.3701013865,0.8500432226\\Version=EM64L-
 G09RevD.01\State=1-A\HF=-287.3671452\RMSD=3.842e-09\RMSF=8.700e-07\Zer
 oPoint=0.1174124\Thermal=0.1232132\Dipole=-0.5357693,-0.3934855,0.0272
 992\DipoleDeriv=-0.3545795,-0.0088636,-0.0519142,0.0059955,-0.1765605,
 0.0077276,0.3559964,0.0126416,0.031005,-0.0063648,-0.0136499,-0.088837
 4,-0.0126002,0.1372397,-0.0171368,-0.0785845,-0.0163834,-0.0495481,0.1
 932181,0.0185916,0.1181177,0.0103906,-0.1250273,0.0242211,-0.0172351,0
 .0213222,0.162438,0.0306938,0.0001123,0.0722526,0.0008561,0.1296195,-0
 .0105985,0.0781594,-0.0099332,-0.0589331,-0.0943045,0.0057937,-0.00070
 43,0.0044328,-0.1786153,-0.0082975,-0.0006146,-0.008299,-0.3011579,-0.
 0976984,-0.0097894,0.0009019,-0.0089048,0.1466743,-0.0056688,0.0008413
 ,-0.0056685,0.0626637,0.1929037,0.0025747,-0.1196297,0.0125875,-0.1259
 147,0.0147781,0.0156015,0.01768,0.1636353,0.0302373,-0.0096029,-0.0718
 869,-0.0096576,0.1289615,-0.0147794,-0.0778389,-0.0154442,-0.0578199,-
 0.3554908,-0.0017436,0.0538036,-0.0416851,-0.1755256,0.0203413,-0.3524
 138,0.0153861,0.0308863,-0.0058507,-0.0016116,0.0897262,-0.0019417,0.1
 383361,-0.0083028,0.0794255,-0.0090511,-0.0511534,1.5153934,0.007523,-
 0.0028645,-0.0180503,0.0416014,-0.0052073,-0.0011431,-0.0052446,-0.035
 7953,-1.4649406,0.0569494,-0.0017996,0.4208699,-0.417583,0.0189334,-0.
 026288,0.0194831,-0.1280922,0.2085169,-0.0201809,0.0463468,-0.1786334,
 0.2314322,-0.0699095,0.0506776,-0.0493331,0.1227696,0.2082658,-0.02610
 28,-0.0435121,-0.1836594,0.2453615,0.0538991,-0.0265839,0.0328442,0.10
 91019\Polar=98.9227846,2.4616472,43.8693325,-0.1902064,2.6209357,82.66
 69522\PG=C01 [X(C6H7N1)]\NImag=0\\0.72435198,0.02379114,0.12389974,0.0
 2830513,0.03949324,0.70330570,-0.12487416,-0.01124301,-0.11737290,0.13
 064498,-0.01080987,-0.03319759,-0.01896400,0.01247331,0.02426666,-0.11
 708472,-0.01936558,-0.26630454,0.12799757,0.02116063,0.28192192,-0.358
 85967,-0.01298731,-0.03152451,-0.01089433,-0.00040047,0.00171775,0.700
 73643,-0.00968386,-0.05443967,-0.00626906,-0.00233470,0.00059100,0.000
 20858,0.02038849,0.13366879,0.03197556,-0.00315623,-0.12528995,-0.0294
 9858,-0.00114302,0.00306726,-0.02646313,0.03944331,0.72775935,-0.01070
 981,0.00149926,0.02869002,0.00111087,0.00017798,-0.00035913,-0.1258183
 6,0.00450738,0.11902752,0.13019418,-0.00066465,0.00188592,0.00121426,0
 .00019110,-0.00388994,0.00028501,0.00451419,-0.03578247,-0.01141977,-0
 .00464661,0.02583961,-0.00200573,-0.00000855,0.00275001,0.00032748,0.0
 0033317,0.00086124,0.11949175,-0.01136024,-0.27093900,-0.12890421,0.01
 274616,0.28662029,-0.03049795,-0.00338481,-0.02705402,-0.00551800,-0.0
 0054552,0.00047390,-0.18266916,-0.01365780,-0.12875882,0.01178342,0.00
 152449,0.01633309,0.75376704,-0.00665503,0.00711419,0.00069684,-0.0003
 5621,0.00738954,-0.00027237,-0.00907346,-0.05904985,-0.02057736,-0.000
 61259,0.00202631,-0.00076305,0.02490003,0.12033159,-0.07554046,-0.0022
 1747,0.03234680,0.00159044,-0.00030167,0.00228091,-0.06309115,-0.01780
 382,-0.28640757,-0.01452133,-0.00188723,-0.01809221,-0.00179807,0.0371
 0100,0.66931277,0.00081910,-0.00045256,-0.00312975,-0.00068580,-0.0000
 4463,0.00016929,-0.01170749,-0.00023790,0.00308230,0.00080699,0.000149
 31,-0.00028349,-0.34153476,-0.01208974,0.00124342,0.36226924,-0.000411
 45,0.00700504,-0.00090495,-0.00015515,0.00051503,-0.00002451,-0.002353
 86,-0.00037912,0.00044515,0.00020770,-0.00352393,0.00031448,-0.0120329
 2,-0.02966744,-0.00189111,0.01311618,0.02383737,-0.00210244,-0.0008329
 4,-0.00429488,-0.00142120,-0.00011155,0.00000695,-0.02829745,-0.000807
 19,0.00455380,0.00058987,0.00034234,0.00103780,0.00123948,-0.00189105,
 -0.05789497,-0.00134557,0.00221228,0.05683620,-0.04912493,-0.00071107,
 0.02476458,-0.00088784,-0.00001003,0.00120918,0.06321709,0.00400061,0.
 02504297,-0.00070770,-0.00056530,-0.00412690,-0.18208505,-0.00053874,0
 .06341504,-0.01163084,0.00146446,0.02840639,0.70089087,0.00035264,-0.0
 0608414,0.00027173,0.00001799,-0.00028605,0.00008329,0.00058430,0.0061
 7298,-0.00350665,-0.00051947,0.00720368,-0.00088512,0.00371510,-0.0580
 3839,-0.01311899,-0.00064232,-0.00024249,0.00145231,0.02375933,0.13385
 788,0.03117551,0.00065264,-0.01783753,0.00080698,0.00012252,0.00004266
 ,-0.02573153,-0.00567231,-0.06161303,-0.00338886,-0.00088170,-0.003511
 67,0.12910519,-0.01034587,-0.28799877,-0.00297407,0.00019993,0.0043402
 7,0.02358135,0.04083537,0.72741379,-0.00087664,0.00002125,0.00080401,0
 .00005273,0.00003986,-0.00008762,-0.00068478,-0.00006050,0.00341913,0.
 00040520,0.00006653,0.00081674,0.01177740,0.00133206,0.01438199,0.0008
 0602,0.00012678,-0.00061159,-0.12654295,-0.01153567,-0.11899429,0.1309
 7729,0.00005938,-0.00074533,0.00006494,0.00003343,-0.00108781,0.000068
 10,-0.00000712,0.00724572,-0.00057458,-0.00004379,0.00011639,-0.000049
 50,-0.00068384,0.00201663,-0.00083424,0.00018592,-0.00352923,0.0002751
 5,-0.01159080,-0.03697864,-0.02017603,0.01272535,0.02713558,0.00091710
 ,0.00012129,0.00036679,-0.00010256,0.00006577,-0.00003293,0.00415664,-
 0.00057106,-0.00357674,-0.00082279,-0.00011210,-0.00107780,-0.01648063
 ,-0.00195846,-0.01807671,0.00026168,0.00030301,0.00104412,-0.11945516,
 -0.02023550,-0.26901796,0.12883445,0.02229753,0.28454107,0.05856883,0.
 00093187,-0.01922031,-0.00081097,0.00012505,0.00420817,-0.04929347,-0.
 00382762,-0.03084566,-0.00088183,-0.00006388,-0.00091296,-0.03018515,0
 .00354974,0.07593842,0.00083500,-0.00012641,0.00212292,-0.35885657,-0.
 01383052,-0.02968331,-0.01079047,-0.00039050,0.00211816,0.72417284,0.0
 0347555,0.01020393,-0.00502797,0.00003642,0.00494740,-0.00043395,-0.00
 402316,-0.00641651,-0.00217896,-0.00008663,-0.00075007,0.00003028,0.00
 029815,0.00776890,0.00552652,-0.00002968,0.00703280,-0.00070008,-0.008
 59901,-0.05445633,-0.00639565,-0.00235820,0.00174184,0.00015174,0.0197
 7202,0.12381391,0.01859749,-0.00293690,-0.04860726,0.00325879,-0.00042
 320,-0.00321370,-0.02435004,-0.00180028,-0.01733623,-0.00079580,0.0000
 8647,0.00037671,0.02745086,0.00261232,0.03137944,0.00314647,-0.0006280
 0,-0.00433861,0.03368679,-0.00327959,-0.12527870,-0.02859080,-0.001070
 76,0.00297486,-0.03129589,0.03886539,0.70357317,-0.00083363,-0.0004016
 9,-0.00324147,0.00051059,-0.00001710,-0.00078705,-0.00089392,-0.000090
 36,-0.00079922,0.00005329,0.00004686,0.00009690,-0.00552395,-0.0005647
 9,-0.00150477,-0.00068197,0.00003691,0.00143123,-0.01080969,0.00164455
 ,0.02958695,0.00111090,0.00014547,-0.00035086,-0.12416298,0.00458002,0
 .11738633,0.12986802,-0.00044123,0.00491474,-0.00067453,0.00008817,0.0
 0016198,-0.00011411,-0.00017207,-0.00030743,-0.00007438,0.00005125,-0.
 00108668,0.00007663,-0.00060265,0.00737429,-0.00038542,-0.00006655,0.0
 0052396,0.00004149,-0.00062062,0.00075951,0.00145103,0.00022441,-0.003
 88678,0.00030864,0.00496987,-0.03229782,-0.01274143,-0.00478385,0.0232
 7784,-0.00419414,-0.00066386,-0.00315840,0.00077728,-0.00005964,-0.001
 12159,-0.00119401,-0.00003540,0.00007012,0.00008123,0.00007432,-0.0000
 3464,-0.00037295,-0.00041508,0.00230223,-0.00015973,-0.00004554,-0.000
 00583,-0.00160709,0.00009910,0.00281420,0.00033134,0.00035696,0.000858
 01,0.11704273,-0.01233847,-0.26791697,-0.12804962,0.01388015,0.2836887
 1,-0.16548896,0.00266849,0.11016128,0.00907229,-0.00096218,-0.01815518
 ,-0.02882206,0.00038920,0.03218483,-0.00540671,-0.00069499,-0.00097174
 ,0.00813688,0.00079735,-0.00018334,0.00051167,0.00008025,-0.00000874,-
 0.02916707,-0.00392667,-0.03173654,-0.00539966,-0.00055664,0.00107857,
 -0.16594483,-0.01215448,-0.10986306,0.00908578,0.00147387,0.01803424,0
 .71922169,-0.00116600,-0.07035224,-0.00764886,0.00108981,0.00386053,-0
 .00217809,0.00470758,0.00258730,0.00299375,-0.00049649,0.00797826,-0.0
 0039484,-0.00040001,-0.00611046,-0.00479466,0.00008273,-0.00077515,-0.
 00006104,-0.00628879,0.00204328,0.00211992,-0.00032132,0.00798471,-0.0
 0040661,-0.00663722,-0.07141503,-0.02027519,-0.00076093,0.00389915,-0.
 00095985,0.02894281,0.17226940,0.04057139,-0.01243775,-0.27810907,0.01
 369907,-0.00124485,-0.01927992,0.08178775,0.00613130,0.03964375,-0.001
 26104,-0.00045330,0.00205537,-0.00010277,-0.00479625,-0.07698777,-0.00
 000889,-0.00006097,-0.00167543,-0.08147101,-0.00101510,0.04053280,0.00
 133867,-0.00034750,0.00204192,-0.04038705,-0.01548414,-0.27658970,-0.0
 1380776,-0.00189312,-0.01933154,-0.00196760,0.03596612,0.70456940,-0.0
 3950275,0.00038298,0.01382250,0.00216174,0.00050860,-0.00095165,0.0063
 9112,-0.00059809,-0.00022057,-0.00042416,0.00014851,0.00021474,-0.0083
 5018,-0.00047147,0.00005567,0.00010590,0.00017926,-0.00001156,0.006409
 86,-0.00056261,0.00025115,-0.00042961,0.00011827,-0.00023162,-0.039686
 81,-0.00146629,-0.01362525,0.00216256,0.00062903,0.00087457,-0.3108917
 6,0.00844383,-0.00027985,0.63127030,0.00324532,0.00784294,-0.00419867,
 0.00055753,-0.00286541,-0.00003126,-0.00248348,0.00496193,0.00022404,-
 0.00011501,0.00012870,-0.00008332,0.00240679,-0.00117953,0.00056952,-0
 .00003485,-0.00061473,0.00007150,-0.00169598,0.00495823,-0.00212998,-0
 .00032750,0.00013133,0.00005749,-0.00306226,0.00828736,0.00330803,0.00
 047860,-0.00293003,0.00069417,-0.03911484,-0.04234519,-0.00525435,0.17
 839097,0.15360833,0.04697224,0.00001658,0.00161641,0.00055904,0.001172
 85,0.00198144,-0.00575248,-0.00210585,-0.00916505,0.00159495,0.0000373
 7,-0.00006729,-0.00013810,0.00057370,0.00728957,0.00000286,0.00007113,
 0.00044140,0.00598616,0.00019541,-0.00918032,-0.00156409,-0.00006432,-
 0.00006443,-0.04686013,-0.00090492,0.00135626,-0.00062899,-0.00051021,
 0.00204532,0.00292010,-0.00532690,-0.12093154,-0.01176147,0.04290546,0
 .79221752,0.00275550,0.00092871,-0.00198211,-0.00000668,-0.00046937,0.
 00155002,-0.00064058,0.00066846,-0.00006289,0.00008621,-0.00001565,-0.
 00002391,0.00045138,-0.00007752,0.00046631,0.00004356,-0.00005874,0.00
 011472,-0.00006721,0.00027505,-0.00197169,-0.00049148,0.00001702,0.000
 05156,-0.00571455,-0.00062867,0.00315742,0.00012477,-0.00007869,-0.000
 08914,-0.01751110,-0.01597911,-0.03443226,-0.12499584,-0.07771859,-0.1
 2088566,0.13732314,-0.00036413,-0.00023045,0.00083039,-0.00039818,0.00
 022760,0.00043623,-0.00021700,-0.00048883,-0.00027567,-0.00001172,-0.0
 0000556,0.00002052,-0.00072442,0.00006926,0.00078856,0.00002867,-0.000
 10273,0.00003714,0.00149697,0.00166208,-0.00005275,0.00008756,-0.00014
 289,0.00000152,-0.00058422,0.00195294,-0.00116838,0.00002011,-0.000665
 14,-0.00004632,0.01136595,-0.00454254,0.00428731,-0.10189553,-0.082115
 50,-0.16107858,0.08422395,0.08306702,0.00345139,0.00080158,0.00165519,
 -0.00046565,-0.00079837,-0.00051790,-0.00084376,0.00088437,-0.00059548
 ,0.00006657,-0.00005300,-0.00002205,0.00068770,0.00009251,0.00021432,-
 0.00005310,-0.00020085,-0.00001383,-0.00029790,-0.00000644,-0.00019054
 ,-0.00001323,0.00000397,0.00004576,0.00114914,-0.00058522,0.00177829,0
 .00015507,-0.00005944,0.00034015,-0.00324537,0.00063257,0.00181841,-0.
 12521313,-0.12824962,-0.31625796,0.13994248,0.14330821,0.33139034,-0.0
 0572691,-0.00104325,-0.00302246,0.00012459,-0.00006564,0.00009948,-0.0
 0006082,0.00053669,0.00191656,-0.00049160,0.00001009,-0.00005176,0.000
 44808,-0.00013964,-0.00045217,0.00004338,-0.00007300,-0.00010604,-0.00
 063797,0.00066830,-0.00002685,0.00008607,-0.00001217,0.00002545,0.0027
 5095,0.00118397,0.00183668,-0.00000977,-0.00067093,-0.00147469,-0.0173
 9617,-0.01121689,0.03632135,-0.12422036,-0.06052668,0.12955556,0.00864
 289,0.00697200,-0.01532021,0.13644764,-0.00072782,0.00218290,0.0011166
 1,-0.00000049,-0.00063295,0.00017802,0.00152338,0.00163616,-0.00019962
 ,0.00008873,-0.00014022,0.00002339,-0.00081260,-0.00004505,-0.00075098
 ,0.00003543,-0.00007938,-0.00002836,-0.00010104,-0.00057162,0.00027286
 ,-0.00002061,-0.00000152,-0.00002324,-0.00082592,-0.00041332,-0.000548
 48,-0.00033381,0.00026240,-0.00054055,0.01169189,-0.00508202,-0.003397
 40,-0.08380745,-0.04786844,0.12501826,0.00891316,0.00131474,-0.0157702
 6,0.06437715,0.04943831,-0.00103831,0.00053395,0.00156073,-0.00015576,
 0.00019137,0.00030821,0.00009417,-0.00024236,-0.00017122,0.00000299,0.
 00002118,0.00004325,-0.00058485,-0.00005688,0.00033197,0.00004857,0.00
 020994,-0.00003701,0.00086561,-0.00088983,-0.00051520,-0.00006472,0.00
 005028,-0.00002596,-0.00337422,-0.00052457,0.00184244,0.00051325,0.000
 69470,-0.00054976,0.00175256,0.00033368,0.00224331,0.13707646,0.092117
 00,-0.35128133,0.01416516,0.01291181,-0.01964469,-0.14930090,-0.105350
 27,0.36589525\\0.00000159,0.00000008,0.00000154,-0.00000066,-0.0000002
 2,-0.00000086,-0.00000060,0.00000021,0.00000117,0.00000056,0.00000021,
 -0.00000069,-0.00000124,0.00000018,-0.00000110,0.00000087,0.00000015,0
 .00000027,-0.00000171,-0.00000026,-0.00000074,0.00000081,0.00000020,0.
 00000056,0.00000098,-0.00000004,-0.00000075,-0.00000045,0.00000032,0.0
 0000072,-0.00000199,-0.00000018,-0.00000093,0.00000099,-0.00000139,0.0
 0000177,0.00000067,0.00000038,-0.00000093,0.00000018,0.00000036,-0.000
 00003\\\@


 I MET A TRAVELLER FROM AN ANTIQUE LAND
 WHO SAID... TWO VAST AND TRUNKLESS LEGS OF STONE
 STAND IN THE DESERT..... NEAR THEM,  ON THE SAND,
 HALF SUNK,  A SHATTERED VISAGE LIES,  WHOSE FROWN,
 AND WRINKLED LIP,  AND SNEER OF COLD COMMAND
 TELL THAT ITS SCULPTOR WELL THOSE PASSIONS READ
 WHICH YET SURVIVE,  STAMPED ON THESE LIFELESS THINGS
 THE HAND THAT MOCKED THEM,  AND THE HEART THAT FED-
 AND ON THE PEDESTAL THESE WORDS APPEAR 
 MY NAME IS OZYMANDIAS, KING OF KINGS--   
 LOOK ON MY WORKS YE MIGHTY AND DESPAIR. 
 NOTHING BESIDE REMAINS,  ROUND THE DECAY 
 OF THAT COLOSSAL WRECK,  BOUNDLESS AND BARE
 THE LONE AND LEVEL SANDS STRETCH FAR AWAY.
                                    SHELLEY
 FChkPn:  Coordinates translated and rotated.
 FChkPn:  Coordinates match /B/ after translation and rotation.
 Job cpu time:       0 days  0 hours 56 minutes 51.5 seconds.
 File lengths (MBytes):  RWF=     83 Int=      0 D2E=      0 Chk=      6 Scr=      1
 Normal termination of Gaussian 09 at Wed Dec 18 13:34:22 2019.
