C2H4                                                                    
SP        RPBE1PBE                                                    6-31G               
Number of atoms                            I                6
Info1-9                                    I   N=           9
          16          14           0           0           0         110
           1          18        -302
Full Title                                 C   N=           1
C2H4        
Route                                      C   N=           5
#p pbe1pbe/6-31G gfinput pop=nboread formcheck int=ultrafine
Charge                                     I                0
Multiplicity                               I                1
Number of electrons                        I               16
Number of alpha electrons                  I                8
Number of beta electrons                   I                8
Number of basis functions                  I               26
Number of independent functions            I               26
Number of point charges in /Mol/           I                0
Number of translation vectors              I                0
Atomic numbers                             I   N=           6
           6           1           1           6           1           1
Nuclear charges                            R   N=           6
  6.00000000E+00  1.00000000E+00  1.00000000E+00  6.00000000E+00  1.00000000E+00
  1.00000000E+00
Current cartesian coordinates              R   N=          18
 -1.11022302E-16 -1.28047843E+00 -7.39557099E-32 -1.74709113E+00 -2.29841003E+00
 -9.86076132E-32  1.75310823E+00 -2.28801190E+00 -1.47911420E-31  1.11022302E-16
  1.28047843E+00 -4.93038066E-32  1.74709113E+00  2.29841003E+00  0.00000000E+00
 -1.75310823E+00  2.28801190E+00 -4.93038066E-32
Number of symbols in /Mol/                 I                0
Force Field                                I                0
Atom Types                                 C   N=           6
                                                            
            
Int Atom Types                             I   N=           6
           0           0           0           0           0           0
MM charges                                 R   N=           6
  0.00000000E+00  0.00000000E+00  0.00000000E+00  0.00000000E+00  0.00000000E+00
  0.00000000E+00
Integer atomic weights                     I   N=           6
          12           1           1          12           1           1
Real atomic weights                        R   N=           6
  1.20000000E+01  1.00782504E+00  1.00782504E+00  1.20000000E+01  1.00782504E+00
  1.00782504E+00
Atom fragment info                         I   N=           6
           0           0           0           0           0           0
Atom residue num                           I   N=           6
           0           0           0           0           0           0
Nuclear spins                              I   N=           6
           0           1           1           0           1           1
Nuclear ZEff                               R   N=           6
 -3.60000000E+00 -1.00000000E+00 -1.00000000E+00 -3.60000000E+00 -1.00000000E+00
 -1.00000000E+00
Nuclear ZNuc                               R   N=           6
  6.00000000E+00  1.00000000E+00  1.00000000E+00  6.00000000E+00  1.00000000E+00
  1.00000000E+00
Nuclear QMom                               R   N=           6
  0.00000000E+00  0.00000000E+00  0.00000000E+00  0.00000000E+00  0.00000000E+00
  0.00000000E+00
Nuclear GFac                               R   N=           6
  0.00000000E+00  2.79284600E+00  2.79284600E+00  0.00000000E+00  2.79284600E+00
  2.79284600E+00
MicOpt                                     I   N=           6
          -1          -1          -1          -1          -1          -1
Number of residues                         I                0
Number of secondary structures             I                0
Number of contracted shells                I               14
Number of primitive shells                 I               36
Pure/Cartesian d shells                    I                1
Pure/Cartesian f shells                    I                0
Highest angular momentum                   I                1
Largest degree of contraction              I                6
Shell types                                I   N=          14
           0          -1          -1           0           0           0
           0           0          -1          -1           0           0
           0           0
Number of primitives per shell             I   N=          14
           6           3           1           3           1           3
           1           6           3           1           3           1
           3           1
Shell to atom map                          I   N=          14
           1           1           1           2           2           3
           3           4           4           4           5           5
           6           6
Primitive exponents                        R   N=          36
  3.04752488E+03  4.57369518E+02  1.03948685E+02  2.92101553E+01  9.28666296E+00
  3.16392696E+00  7.86827235E+00  1.88128854E+00  5.44249258E-01  1.68714478E-01
  1.87311370E+01  2.82539436E+00  6.40121692E-01  1.61277759E-01  1.87311370E+01
  2.82539436E+00  6.40121692E-01  1.61277759E-01  3.04752488E+03  4.57369518E+02
  1.03948685E+02  2.92101553E+01  9.28666296E+00  3.16392696E+00  7.86827235E+00
  1.88128854E+00  5.44249258E-01  1.68714478E-01  1.87311370E+01  2.82539436E+00
  6.40121692E-01  1.61277759E-01  1.87311370E+01  2.82539436E+00  6.40121692E-01
  1.61277759E-01
Contraction coefficients                   R   N=          36
  1.83473713E-03  1.40373228E-02  6.88426223E-02  2.32184443E-01  4.67941348E-01
  3.62311985E-01 -1.19332420E-01 -1.60854152E-01  1.14345644E+00  1.00000000E+00
  3.34946043E-02  2.34726953E-01  8.13757326E-01  1.00000000E+00  3.34946043E-02
  2.34726953E-01  8.13757326E-01  1.00000000E+00  1.83473713E-03  1.40373228E-02
  6.88426223E-02  2.32184443E-01  4.67941348E-01  3.62311985E-01 -1.19332420E-01
 -1.60854152E-01  1.14345644E+00  1.00000000E+00  3.34946043E-02  2.34726953E-01
  8.13757326E-01  1.00000000E+00  3.34946043E-02  2.34726953E-01  8.13757326E-01
  1.00000000E+00
P(S=P) Contraction coefficients            R   N=          36
  0.00000000E+00  0.00000000E+00  0.00000000E+00  0.00000000E+00  0.00000000E+00
  0.00000000E+00  6.89990666E-02  3.16423961E-01  7.44308291E-01  1.00000000E+00
  0.00000000E+00  0.00000000E+00  0.00000000E+00  0.00000000E+00  0.00000000E+00
  0.00000000E+00  0.00000000E+00  0.00000000E+00  0.00000000E+00  0.00000000E+00
  0.00000000E+00  0.00000000E+00  0.00000000E+00  0.00000000E+00  6.89990666E-02
  3.16423961E-01  7.44308291E-01  1.00000000E+00  0.00000000E+00  0.00000000E+00
  0.00000000E+00  0.00000000E+00  0.00000000E+00  0.00000000E+00  0.00000000E+00
  0.00000000E+00
Coordinates of each shell                  R   N=          42
 -5.93716757E-36 -1.28047843E+00 -3.15662305E-32 -5.93716757E-36 -1.28047843E+00
 -3.15662305E-32 -5.93716757E-36 -1.28047843E+00 -3.15662305E-32 -1.74709113E+00
 -2.29841003E+00 -4.58929014E-32 -1.74709113E+00 -2.29841003E+00 -4.58929014E-32
  1.75310823E+00 -2.28801190E+00 -6.72082117E-32  1.75310823E+00 -2.28801190E+00
 -6.72082117E-32  2.13242496E-16  1.28047843E+00 -6.31324609E-32  2.13242496E-16
  1.28047843E+00 -6.31324609E-32  2.13242496E-16  1.28047843E+00 -6.31324609E-32
  1.74709113E+00  2.29841003E+00 -6.41315572E-32  1.74709113E+00  2.29841003E+00
 -6.41315572E-32 -1.75310823E+00  2.28801190E+00 -1.62165912E-31 -1.75310823E+00
  2.28801190E+00 -1.62165912E-31
Constraint Structure                       R   N=          18
 -5.93716757E-36 -1.28047843E+00 -3.15662305E-32 -1.74709113E+00 -2.29841003E+00
 -4.58929014E-32  1.75310823E+00 -2.28801190E+00 -6.72082117E-32  2.13242496E-16
  1.28047843E+00 -6.31324609E-32  1.74709113E+00  2.29841003E+00 -6.41315572E-32
 -1.75310823E+00  2.28801190E+00 -1.62165912E-31
Num ILSW                                   I              100
ILSW                                       I   N=         100
           0           1           0           0           2           0
           0           0           3           0        1009          -1
           5           0           0           0           0           0
           0           0           0           0           0           0
           1           0           0           0           0           0
           0           0      100000           0          -1           0
           0           0           0           0           0           0
           0           0           0           1           0           0
           0           0           1           0           0           0
           0           0           4          41           0           0
           0           0          13           0           0           0
           0           0           0           6           0           0
           0           0           0           0           0           0
           0           0           0           0           0           0
           0           0           0           0           0           0
           0           0           0           0           0           0
           0           0           0           0
Num RLSW                                   I               41
RLSW                                       R   N=          41
  7.50000000E-01  7.50000000E-01  1.00000000E+00  1.00000000E+00  2.50000000E-01
  0.00000000E+00  0.00000000E+00  1.00000000E+00  0.00000000E+00  0.00000000E+00
  0.00000000E+00  0.00000000E+00  1.00000000E+00  0.00000000E+00  0.00000000E+00
  0.00000000E+00  0.00000000E+00  1.00000000E+00  0.00000000E+00  0.00000000E+00
  0.00000000E+00  0.00000000E+00  1.00000000E+00  0.00000000E+00  0.00000000E+00
  0.00000000E+00  0.00000000E+00  1.00000000E+00  0.00000000E+00  0.00000000E+00
  0.00000000E+00  0.00000000E+00  1.00000000E+00  0.00000000E+00  0.00000000E+00
  0.00000000E+00  0.00000000E+00  0.00000000E+00  1.00000000E+00  1.00000000E+00
  0.00000000E+00
MxBond                                     I                3
NBond                                      I   N=           6
           3           1           1           3           1           1
IBond                                      I   N=          18
           2           3           4           1           0           0
           1           0           0           1           5           6
           4           0           0           4           0           0
RBond                                      R   N=          18
  1.00000000E+00  1.00000000E+00  2.00000000E+00  1.00000000E+00  0.00000000E+00
  0.00000000E+00  1.00000000E+00  0.00000000E+00  0.00000000E+00  2.00000000E+00
  1.00000000E+00  1.00000000E+00  1.00000000E+00  0.00000000E+00  0.00000000E+00
  1.00000000E+00  0.00000000E+00  0.00000000E+00
Virial Ratio                               R      2.004812607920633E+00
SCF Energy                                 R     -7.846268446007088E+01
Total Energy                               R     -7.846268446007088E+01
RMS Density                                R      4.365669673209777E-10
External E-field                           R   N=          35
  0.00000000E+00  0.00000000E+00  0.00000000E+00  0.00000000E+00  0.00000000E+00
  0.00000000E+00  0.00000000E+00  0.00000000E+00  0.00000000E+00  0.00000000E+00
  0.00000000E+00  0.00000000E+00  0.00000000E+00  0.00000000E+00  0.00000000E+00
  0.00000000E+00  0.00000000E+00  0.00000000E+00  0.00000000E+00  0.00000000E+00
  0.00000000E+00  0.00000000E+00  0.00000000E+00  0.00000000E+00  0.00000000E+00
  0.00000000E+00  0.00000000E+00  0.00000000E+00  0.00000000E+00  0.00000000E+00
  0.00000000E+00  0.00000000E+00  0.00000000E+00  0.00000000E+00  0.00000000E+00
IOpCl                                      I                0
IROHF                                      I                0
Alpha Orbital Energies                     R   N=          26
 -1.02260117E+01 -1.02252809E+01 -7.79617978E-01 -5.97621795E-01 -4.87868581E-01
 -4.22301967E-01 -3.71654641E-01 -2.75445694E-01  2.05712444E-02  1.35284781E-01
  1.62518723E-01  1.78416232E-01  2.60176529E-01  3.30612192E-01  5.14268496E-01
  5.79133366E-01  6.09025282E-01  6.59262555E-01  7.04878760E-01  7.40812732E-01
  9.07286164E-01  9.59259771E-01  9.96013375E-01  9.98830977E-01  1.14029394E+00
  1.31094877E+00
Alpha MO coefficients                      R   N=         676
  7.03625899E-01  2.25711527E-02  1.79278875E-06 -7.50850063E-04  0.00000000E+00
 -1.17441021E-02 -1.38256286E-05  1.37960631E-03  0.00000000E+00 -8.83397333E-04
  3.42640283E-03 -8.80207315E-04  3.43926130E-03  7.03625899E-01  2.25711527E-02
 -1.79278875E-06  7.50850063E-04  0.00000000E+00 -1.17441021E-02  1.38256286E-05
 -1.37960631E-03  0.00000000E+00 -8.83397333E-04  3.42640283E-03 -8.80207315E-04
  3.43926130E-03  7.03841481E-01  2.53351239E-02  3.07934460E-06  9.16091160E-04
  0.00000000E+00 -2.53815764E-02 -1.31087973E-05 -5.09091977E-03  0.00000000E+00
 -5.19313077E-04  3.22332971E-03 -5.17386754E-04  3.23584852E-03 -7.03841481E-01
 -2.53351239E-02  3.07934460E-06  9.16091160E-04  0.00000000E+00  2.53815764E-02
 -1.31087973E-05 -5.09091977E-03  0.00000000E+00  5.19313077E-04 -3.22332971E-03
  5.17386754E-04 -3.23584852E-03 -1.58167472E-01  3.07070846E-01  1.70289823E-04
  9.91527365E-02  0.00000000E+00  2.28135451E-01 -1.57721175E-04  6.82218877E-03
  0.00000000E+00  8.74363635E-02  1.88132237E-02  8.76097266E-02  1.90639415E-02
 -1.58167472E-01  3.07070846E-01 -1.70289823E-04 -9.91527365E-02  0.00000000E+00
  2.28135451E-01  1.57721175E-04 -6.82218877E-03  0.00000000E+00  8.74363635E-02
  1.88132237E-02  8.76097266E-02  1.90639415E-02 -1.24841005E-01  2.49977744E-01
  1.55435765E-04 -1.63404996E-01  0.00000000E+00  2.49556648E-01  7.36921133E-05
 -5.54227676E-02  0.00000000E+00  1.48980036E-01  6.44297200E-02  1.48625202E-01
  6.41962666E-02  1.24841005E-01 -2.49977744E-01  1.55435765E-04 -1.63404996E-01
  0.00000000E+00 -2.49556648E-01  7.36921133E-05 -5.54227676E-02  0.00000000E+00
 -1.48980036E-01 -6.44297200E-02 -1.48625202E-01 -6.41962666E-02  1.27485248E-06
  4.20173652E-05  3.29987572E-01  3.55255850E-04  0.00000000E+00  9.77778296E-05
  1.27367037E-01  2.08879193E-04  0.00000000E+00 -1.56627335E-01 -1.00735853E-01
  1.57004086E-01  1.00977742E-01 -1.27485248E-06 -4.20173652E-05  3.29987572E-01
  3.55255850E-04  0.00000000E+00 -9.77778296E-05  1.27367037E-01  2.08879193E-04
  0.00000000E+00  1.56627335E-01  1.00735853E-01 -1.57004086E-01 -1.00977742E-01
 -1.13663235E-02  2.64106661E-02  2.63078993E-03  4.16549132E-01  0.00000000E+00
 -3.99121660E-03  9.57359383E-04  1.50996222E-01  0.00000000E+00 -1.27703720E-01
 -1.03711238E-01 -1.23488973E-01 -1.00467185E-01 -1.13663235E-02  2.64106661E-02
 -2.63078993E-03 -4.16549132E-01  0.00000000E+00 -3.99121660E-03 -9.57359383E-04
 -1.50996222E-01  0.00000000E+00 -1.27703720E-01 -1.03711238E-01 -1.23488973E-01
 -1.00467185E-01  2.60344275E-04 -6.27638196E-04  3.14514685E-01 -3.95093903E-03
  0.00000000E+00 -3.60508957E-04  1.44333824E-01 -1.64536018E-03  0.00000000E+00
 -2.00764124E-01 -1.71662336E-01  2.03350860E-01  1.74011660E-01  2.60344275E-04
 -6.27638196E-04 -3.14514685E-01  3.95093903E-03  0.00000000E+00 -3.60508957E-04
 -1.44333824E-01  1.64536018E-03  0.00000000E+00 -2.00764124E-01 -1.71662336E-01
  2.03350860E-01  1.74011660E-01  0.00000000E+00  0.00000000E+00  0.00000000E+00
  0.00000000E+00  3.97756660E-01  0.00000000E+00  0.00000000E+00  0.00000000E+00
  2.93043429E-01  0.00000000E+00  0.00000000E+00  0.00000000E+00  0.00000000E+00
  0.00000000E+00  0.00000000E+00  0.00000000E+00  0.00000000E+00  3.97756660E-01
  0.00000000E+00  0.00000000E+00  0.00000000E+00  2.93043429E-01  0.00000000E+00
  0.00000000E+00  0.00000000E+00  0.00000000E+00  0.00000000E+00  0.00000000E+00
  0.00000000E+00  0.00000000E+00  4.17995529E-01  0.00000000E+00  0.00000000E+00
  0.00000000E+00  6.33082390E-01  0.00000000E+00  0.00000000E+00  0.00000000E+00
  0.00000000E+00  0.00000000E+00  0.00000000E+00  0.00000000E+00  0.00000000E+00
 -4.17995529E-01  0.00000000E+00  0.00000000E+00  0.00000000E+00 -6.33082390E-01
  0.00000000E+00  0.00000000E+00  0.00000000E+00  0.00000000E+00 -8.11648435E-02
  1.23878642E-01  5.89558748E-04 -1.65437942E-01  0.00000000E+00  1.40002842E+00
  3.49647862E-03 -5.78104663E-01  0.00000000E+00 -4.59112219E-02 -9.80962624E-01
 -4.62827230E-02 -9.83557496E-01 -8.11648435E-02  1.23878642E-01 -5.89558748E-04
  1.65437942E-01  0.00000000E+00  1.40002842E+00 -3.49647862E-03  5.78104663E-01
  0.00000000E+00 -4.59112219E-02 -9.80962624E-01 -4.62827230E-02 -9.83557496E-01
  1.91858931E-03 -2.95530583E-03  2.95720127E-01  1.22586819E-03  0.00000000E+00
 -2.67055778E-02  7.83865976E-01  3.37272683E-03  0.00000000E+00  7.26696547E-02
  1.08928128E+00 -7.08722214E-02 -1.06029887E+00 -1.91858931E-03  2.95530583E-03
  2.95720127E-01  1.22586819E-03  0.00000000E+00  2.67055778E-02  7.83865976E-01
  3.37272683E-03  0.00000000E+00 -7.26696547E-02 -1.08928128E+00  7.08722214E-02
  1.06029887E+00 -1.12738891E-01  1.50831665E-01  5.06939824E-03 -1.04524544E-01
  0.00000000E+00  1.89532629E+00  1.37717589E-02 -5.97300424E-02  0.00000000E+00
 -5.25400834E-02 -9.98769464E-01 -5.41652535E-02 -1.03323124E+00  1.12738891E-01
 -1.50831665E-01  5.06939824E-03 -1.04524544E-01  0.00000000E+00 -1.89532629E+00
  1.37717589E-02 -5.97300424E-02  0.00000000E+00  5.25400834E-02  9.98769464E-01
  5.41652535E-02  1.03323124E+00  1.00116341E-04  1.55906087E-04  3.16494658E-01
  1.85967334E-03  0.00000000E+00 -4.36735150E-03  1.72256376E+00  3.61446557E-03
  0.00000000E+00 -1.85375715E-02  1.55570337E+00  1.83597203E-02 -1.55015372E+00
  1.00116341E-04  1.55906087E-04 -3.16494658E-01 -1.85967334E-03  0.00000000E+00
 -4.36735150E-03 -1.72256376E+00 -3.61446557E-03  0.00000000E+00 -1.85375715E-02
  1.55570337E+00  1.83597203E-02 -1.55015372E+00 -7.08013259E-02  3.77921190E-02
  1.62026609E-04  2.22649944E-01  0.00000000E+00  2.67929155E+00  8.94859584E-04
  2.68819872E+00  0.00000000E+00  8.75548604E-02  5.37798088E-01  8.91808867E-02
  5.29035960E-01  7.08013259E-02 -3.77921190E-02  1.62026609E-04  2.22649944E-01
  0.00000000E+00 -2.67929155E+00  8.94859584E-04  2.68819872E+00  0.00000000E+00
 -8.75548604E-02 -5.37798088E-01 -8.91808867E-02 -5.29035960E-01 -1.70661009E-02
 -1.59328663E-01  3.68173962E-03 -6.00655960E-01  0.00000000E+00 -3.81932258E-01
 -4.40765665E-03  1.09132388E+00  0.00000000E+00  1.04026313E-01  1.24318378E-01
  1.06405771E-01  1.17799881E-01 -1.70661009E-02 -1.59328663E-01 -3.68173962E-03
  6.00655960E-01  0.00000000E+00 -3.81932258E-01  4.40765665E-03 -1.09132388E+00
  0.00000000E+00  1.04026313E-01  1.24318378E-01  1.06405771E-01  1.17799881E-01
  0.00000000E+00  0.00000000E+00  0.00000000E+00  0.00000000E+00  7.48071731E-01
  0.00000000E+00  0.00000000E+00  0.00000000E+00 -6.48987225E-01  0.00000000E+00
  0.00000000E+00  0.00000000E+00  0.00000000E+00  0.00000000E+00  0.00000000E+00
  0.00000000E+00  0.00000000E+00  7.48071731E-01  0.00000000E+00  0.00000000E+00
  0.00000000E+00 -6.48987225E-01  0.00000000E+00  0.00000000E+00  0.00000000E+00
  0.00000000E+00  2.79177669E-04  1.49462149E-03 -4.61104806E-01 -4.79818081E-03
  0.00000000E+00  6.02905357E-03  1.00425789E+00  1.42273263E-02  0.00000000E+00
  3.80160403E-01  2.78927111E-01 -3.74569398E-01 -2.77759573E-01 -2.79177669E-04
 -1.49462149E-03 -4.61104806E-01 -4.79818081E-03  0.00000000E+00 -6.02905357E-03
  1.00425789E+00  1.42273263E-02  0.00000000E+00 -3.80160403E-01 -2.78927111E-01
  3.74569398E-01  2.77759573E-01  0.00000000E+00  0.00000000E+00  0.00000000E+00
  0.00000000E+00 -7.85819884E-01  0.00000000E+00  0.00000000E+00  0.00000000E+00
  1.11966924E+00  0.00000000E+00  0.00000000E+00  0.00000000E+00  0.00000000E+00
  0.00000000E+00  0.00000000E+00  0.00000000E+00  0.00000000E+00  7.85819884E-01
  0.00000000E+00  0.00000000E+00  0.00000000E+00 -1.11966924E+00  0.00000000E+00
  0.00000000E+00  0.00000000E+00  0.00000000E+00 -2.70147212E-02 -9.00891176E-01
 -1.17632668E-03 -1.00916639E-01  0.00000000E+00  1.43818982E+00  6.46200404E-03
 -2.53981596E-01  0.00000000E+00 -4.53676564E-01 -1.86368158E-01 -4.52424372E-01
 -1.94182658E-01 -2.70147212E-02 -9.00891176E-01  1.17632668E-03  1.00916639E-01
  0.00000000E+00  1.43818982E+00 -6.46200404E-03  2.53981596E-01  0.00000000E+00
 -4.53676564E-01 -1.86368158E-01 -4.52424372E-01 -1.94182658E-01 -8.46093161E-02
 -1.76373333E-02 -5.87940873E-03  7.46591991E-01  0.00000000E+00  6.34160285E-01
  1.26851037E-02 -6.67310210E-01  0.00000000E+00 -3.63347076E-01 -1.24291079E-01
 -3.65943031E-01 -1.37618890E-01  8.46093161E-02  1.76373333E-02 -5.87940873E-03
  7.46591991E-01  0.00000000E+00 -6.34160285E-01  1.26851037E-02 -6.67310210E-01
  0.00000000E+00  3.63347076E-01  1.24291079E-01  3.65943031E-01  1.37618890E-01
 -1.28033563E-04  2.93735137E-03 -8.96600224E-01 -3.68043185E-03  0.00000000E+00
 -1.20410392E-02  2.87087907E+00  1.22805879E-02  0.00000000E+00 -2.22212042E-01
  1.60631436E+00  2.22852179E-01 -1.59590190E+00 -1.28033563E-04  2.93735137E-03
  8.96600224E-01  3.68043185E-03  0.00000000E+00 -1.20410392E-02 -2.87087907E+00
 -1.22805879E-02  0.00000000E+00 -2.22212042E-01  1.60631436E+00  2.22852179E-01
 -1.59590190E+00 -5.58201212E-04  1.76554536E-03  6.80452538E-01  6.62736568E-04
  0.00000000E+00  3.69486275E-03 -9.63975069E-01  6.39152431E-03  0.00000000E+00
  5.48286771E-01 -1.08298984E+00 -5.56266614E-01  1.09557860E+00  5.58201212E-04
 -1.76554536E-03  6.80452538E-01  6.62736568E-04  0.00000000E+00 -3.69486275E-03
 -9.63975069E-01  6.39152431E-03  0.00000000E+00 -5.48286771E-01  1.08298984E+00
  5.56266614E-01 -1.09557860E+00  2.96528582E-02 -1.10231407E+00 -2.18944052E-03
  2.91362381E-01  0.00000000E+00  1.78421477E+00  4.90719950E-03 -3.92667293E-01
  0.00000000E+00  4.80666775E-01 -9.03301554E-01  4.81559231E-01 -9.08366648E-01
  2.96528582E-02 -1.10231407E+00  2.18944052E-03 -2.91362381E-01  0.00000000E+00
  1.78421477E+00 -4.90719950E-03  3.92667293E-01  0.00000000E+00  4.80666775E-01
 -9.03301554E-01  4.81559231E-01 -9.08366648E-01 -3.42929474E-02  5.34262358E-01
 -2.70100880E-03 -5.94657173E-01  0.00000000E+00 -6.84712592E-01  3.76781347E-03
  1.13718295E+00  0.00000000E+00 -5.52747037E-01  1.05890516E+00 -5.46978688E-01
  1.04665115E+00  3.42929474E-02 -5.34262358E-01 -2.70100880E-03 -5.94657173E-01
  0.00000000E+00  6.84712592E-01  3.76781347E-03  1.13718295E+00  0.00000000E+00
  5.52747037E-01 -1.05890516E+00  5.46978688E-01 -1.04665115E+00 -2.20220300E-02
 -1.62245310E+00 -1.17327748E-03 -3.05365853E-01  0.00000000E+00  5.37070701E+00
  4.89145310E-03  1.86950192E+00  0.00000000E+00 -2.09885009E-01 -3.22135281E-01
 -2.11067641E-01 -3.28107922E-01  2.20220300E-02  1.62245310E+00 -1.17327748E-03
 -3.05365853E-01  0.00000000E+00 -5.37070701E+00  4.89145310E-03  1.86950192E+00
  0.00000000E+00  2.09885009E-01  3.22135281E-01  2.11067641E-01  3.28107922E-01
 -6.38287748E-05 -1.63769753E-03 -1.23353386E-01 -2.90199911E-03  0.00000000E+00
 -8.20917857E-03  2.94516931E+00  1.32086685E-02  0.00000000E+00  7.63746322E-01
  8.61806383E-01 -7.63351568E-01 -8.52616074E-01 -6.38287748E-05 -1.63769753E-03
  1.23353386E-01  2.90199911E-03  0.00000000E+00 -8.20917857E-03 -2.94516931E+00
 -1.32086685E-02  0.00000000E+00  7.63746322E-01  8.61806383E-01 -7.63351568E-01
 -8.52616074E-01
Total SCF Density                          R   N=         351
  2.06242745E+00 -9.27257784E-02  3.17261243E-01  1.89802573E-05 -4.55806076E-05
  4.15636517E-01  1.95422519E-04  1.21879817E-03 -7.61157377E-05  4.20125553E-01
  0.00000000E+00  0.00000000E+00  0.00000000E+00  0.00000000E+00  3.16420721E-01
 -1.86642599E-01  2.62848100E-01 -2.81599686E-05 -3.96681224E-02  0.00000000E+00
  2.30245044E-01  4.72983580E-05 -1.81215309E-04  1.74854299E-01 -3.07801615E-04
  0.00000000E+00 -1.20994672E-04  7.41111243E-02  3.02162375E-03 -1.57369012E-02
 -1.17578390E-04  1.45262033E-01  0.00000000E+00 -2.55275374E-02 -1.42863432E-04
  5.18973122E-02  0.00000000E+00  0.00000000E+00  0.00000000E+00  0.00000000E+00
  2.33119951E-01  0.00000000E+00  0.00000000E+00  0.00000000E+00  1.71748902E-01
 -6.40328942E-02  1.21608882E-01 -2.30252515E-01 -1.36263299E-01  0.00000000E+00
  1.15433208E-01 -9.81025293E-02 -5.32882393E-02  0.00000000E+00  2.21975629E-01
 -1.04109927E-02  3.88128323E-02 -1.74983026E-01 -1.02441522E-01  0.00000000E+00
  4.14294902E-02 -7.54094127E-02 -3.77056180E-02  0.00000000E+00  1.49449877E-01
  1.09797894E-01 -6.38765331E-02  1.21279901E-01  2.30958746E-01 -1.35572089E-01
  0.00000000E+00  1.15071348E-01  9.84529657E-02 -5.31725386E-02  0.00000000E+00
 -3.96863551E-02 -5.33940241E-02  2.22034679E-01 -1.02895399E-02  3.86056968E-02
  1.75599111E-01 -1.02201044E-01  0.00000000E+00  4.11907419E-02  7.57649101E-02
 -3.77499815E-02  0.00000000E+00 -5.33900295E-02 -5.02134695E-02  1.49705194E-01
  1.10154223E-01  1.85150166E-02 -3.92235320E-02  8.62470619E-05 -8.39822868E-02
  0.00000000E+00  9.43543716E-03  1.20354112E-04 -1.03217113E-02  0.00000000E+00
  1.18252308E-02  1.26885524E-02  1.17973778E-02  1.26571533E-02  2.06242745E+00
 -3.92235320E-02  6.47382726E-02 -2.56775430E-04  1.64516350E-01  0.00000000E+00
  1.58858344E-02 -2.74978919E-04  4.01968136E-02  0.00000000E+00 -2.72789393E-02
 -2.59208750E-02 -2.73060254E-02 -2.59297485E-02 -9.27257784E-02  3.17261243E-01
 -8.62470619E-05  2.56775430E-04  1.99307692E-02  4.43451161E-04  0.00000000E+00
  3.12069322E-04 -6.73609650E-03  3.58767113E-04  0.00000000E+00  2.36048409E-02
  4.20568068E-02 -2.36287565E-02 -4.22735573E-02 -1.89802573E-05  4.55806076E-05
  4.15636517E-01  8.39822868E-02 -1.64516350E-01  4.43451161E-04 -3.13316920E-01
  0.00000000E+00 -1.23539958E-01  4.40578482E-04 -1.09054962E-01  0.00000000E+00
  3.86624962E-02  6.01976330E-02  3.86488973E-02  6.03964307E-02 -1.95422519E-04
 -1.21879817E-03 -7.61157377E-05  4.20125553E-01  0.00000000E+00  0.00000000E+00
  0.00000000E+00  0.00000000E+00  3.16420721E-01  0.00000000E+00  0.00000000E+00
  0.00000000E+00  2.33119951E-01  0.00000000E+00  0.00000000E+00  0.00000000E+00
  0.00000000E+00  0.00000000E+00  0.00000000E+00  0.00000000E+00  0.00000000E+00
  3.16420721E-01  9.43543716E-03  1.58858344E-02 -3.12069322E-04  1.23539958E-01
  0.00000000E+00 -2.14459736E-02 -2.45701676E-04  2.92799990E-02  0.00000000E+00
 -3.32740908E-02 -2.25193179E-02 -3.34042153E-02 -2.26026483E-02 -1.86642599E-01
  2.62848100E-01  2.81599686E-05  3.96681224E-02  0.00000000E+00  2.30245044E-01
 -1.20354112E-04  2.74978919E-04 -6.73609650E-03  4.40578482E-04  0.00000000E+00
  2.45701676E-04 -9.22165333E-03  2.33210787E-04  0.00000000E+00  1.83498329E-02
  2.41065272E-02 -1.84205472E-02 -2.43012133E-02 -4.72983580E-05  1.81215309E-04
  1.74854299E-01 -3.07801615E-04  0.00000000E+00  1.20994672E-04  7.41111243E-02
  1.03217113E-02 -4.01968136E-02  3.58767113E-04 -1.09054962E-01  0.00000000E+00
 -2.92799990E-02  2.33210787E-04 -3.95067352E-02  0.00000000E+00  2.01404059E-02
  2.32723191E-02  2.03653739E-02  2.35367172E-02 -3.02162375E-03  1.57369012E-02
 -1.17578390E-04  1.45262033E-01  0.00000000E+00  2.55275374E-02 -1.42863432E-04
  5.18973122E-02  0.00000000E+00  0.00000000E+00  0.00000000E+00  0.00000000E+00
  2.33119951E-01  0.00000000E+00  0.00000000E+00  0.00000000E+00  1.71748902E-01
  0.00000000E+00  0.00000000E+00  0.00000000E+00  0.00000000E+00  0.00000000E+00
  0.00000000E+00  0.00000000E+00  0.00000000E+00  2.33119951E-01  0.00000000E+00
  0.00000000E+00  0.00000000E+00  1.71748902E-01  1.18252308E-02 -2.72789393E-02
 -2.36048409E-02 -3.86624962E-02  0.00000000E+00 -3.32740908E-02 -1.83498329E-02
 -2.01404059E-02  0.00000000E+00  3.50658578E-02  4.79496525E-02 -2.98916555E-02
 -2.83756578E-02 -6.40328942E-02  1.21608882E-01  2.30252515E-01  1.36263299E-01
  0.00000000E+00  1.15433208E-01  9.81025293E-02  5.32882393E-02  0.00000000E+00
  2.21975629E-01  1.26885524E-02 -2.59208750E-02 -4.20568068E-02 -6.01976330E-02
  0.00000000E+00 -2.25193179E-02 -2.41065272E-02 -2.32723191E-02  0.00000000E+00
  4.79496525E-02  5.25607308E-02 -2.84271118E-02 -2.61114643E-02 -1.04109927E-02
  3.88128323E-02  1.74983026E-01  1.02441522E-01  0.00000000E+00  4.14294902E-02
  7.54094127E-02  3.77056180E-02  0.00000000E+00  1.49449877E-01  1.09797894E-01
  1.17973778E-02 -2.73060254E-02  2.36287565E-02 -3.86488973E-02  0.00000000E+00
 -3.34042153E-02  1.84205472E-02 -2.03653739E-02  0.00000000E+00 -2.98916555E-02
 -2.84271118E-02  3.50746726E-02  4.81314854E-02 -6.38765331E-02  1.21279901E-01
 -2.30958746E-01  1.35572089E-01  0.00000000E+00  1.15071348E-01 -9.84529657E-02
  5.31725386E-02  0.00000000E+00 -3.96863551E-02 -5.33940241E-02  2.22034679E-01
  1.26571533E-02 -2.59297485E-02  4.22735573E-02 -6.03964307E-02  0.00000000E+00
 -2.26026483E-02  2.43012133E-02 -2.35367172E-02  0.00000000E+00 -2.83756578E-02
 -2.61114643E-02  4.81314854E-02  5.28416797E-02 -1.02895399E-02  3.86056968E-02
 -1.75599111E-01  1.02201044E-01  0.00000000E+00  4.11907419E-02 -7.57649101E-02
  3.77499815E-02  0.00000000E+00 -5.33900295E-02 -5.02134695E-02  1.49705194E-01
  1.10154223E-01
Mulliken Charges                           R   N=           6
 -3.20988959E-01  1.60701890E-01  1.60287069E-01 -3.20988959E-01  1.60701890E-01
  1.60287069E-01
NPA Charges                                R   N=           6
 -4.54057471E-01  2.27190802E-01  2.26866668E-01 -4.54057471E-01  2.27190802E-01
  2.26866668E-01
ONIOM Charges                              I   N=          16
           0           0           0           0           0           0
           0           0           0           0           0           0
           0           0           0           0
ONIOM Multiplicities                       I   N=          16