C2H4_pimo
SP        RPBE1PBE                                                    6-31G               
Number of atoms                            I                6
Info1-9                                    I   N=           9
          16          14           0           0           0         110
           1          18        -302
Full Title                                 C   N=           1
C2H4        
Route                                      C   N=           5
#p pbe1pbe/6-31G gfinput pop=nboread formcheck int=ultrafine
Charge                                     I                0
Multiplicity                               I                1
Number of electrons                        I               16
Number of alpha electrons                  I                8
Number of beta electrons                   I                8
Number of basis functions                  I               26
Number of independent functions            I               26
Number of point charges in /Mol/           I                0
Number of translation vectors              I                0
Atomic numbers                             I   N=           6
           6           1           1           6           1           1
Nuclear charges                            R   N=           6
  6.00000000E+00  1.00000000E+00  1.00000000E+00  6.00000000E+00  1.00000000E+00
  1.00000000E+00
Current cartesian coordinates              R   N=          18
 -1.11022302E-16 -1.28047843E+00 -7.39557099E-32 -1.74709113E+00 -2.29841003E+00
 -9.86076132E-32  1.75310823E+00 -2.28801190E+00 -1.47911420E-31  1.11022302E-16
  1.28047843E+00 -4.93038066E-32  1.74709113E+00  2.29841003E+00  0.00000000E+00
 -1.75310823E+00  2.28801190E+00 -4.93038066E-32
Number of symbols in /Mol/                 I                0
Force Field                                I                0
Atom Types                                 C   N=           6
                                                            
            
Int Atom Types                             I   N=           6
           0           0           0           0           0           0
MM charges                                 R   N=           6
  0.00000000E+00  0.00000000E+00  0.00000000E+00  0.00000000E+00  0.00000000E+00
  0.00000000E+00
Integer atomic weights                     I   N=           6
          12           1           1          12           1           1
Real atomic weights                        R   N=           6
  1.20000000E+01  1.00782504E+00  1.00782504E+00  1.20000000E+01  1.00782504E+00
  1.00782504E+00
Atom fragment info                         I   N=           6
           0           0           0           0           0           0
Atom residue num                           I   N=           6
           0           0           0           0           0           0
Nuclear spins                              I   N=           6
           0           1           1           0           1           1
Nuclear ZEff                               R   N=           6
 -3.60000000E+00 -1.00000000E+00 -1.00000000E+00 -3.60000000E+00 -1.00000000E+00
 -1.00000000E+00
Nuclear ZNuc                               R   N=           6
  6.00000000E+00  1.00000000E+00  1.00000000E+00  6.00000000E+00  1.00000000E+00
  1.00000000E+00
Nuclear QMom                               R   N=           6
  0.00000000E+00  0.00000000E+00  0.00000000E+00  0.00000000E+00  0.00000000E+00
  0.00000000E+00
Nuclear GFac                               R   N=           6
  0.00000000E+00  2.79284600E+00  2.79284600E+00  0.00000000E+00  2.79284600E+00
  2.79284600E+00
MicOpt                                     I   N=           6
          -1          -1          -1          -1          -1          -1
Number of residues                         I                0
Number of secondary structures             I                0
Number of contracted shells                I               14
Number of primitive shells                 I               36
Pure/Cartesian d shells                    I                1
Pure/Cartesian f shells                    I                0
Highest angular momentum                   I                1
Largest degree of contraction              I                6
Shell types                                I   N=          14
           0          -1          -1           0           0           0
           0           0          -1          -1           0           0
           0           0
Number of primitives per shell             I   N=          14
           6           3           1           3           1           3
           1           6           3           1           3           1
           3           1
Shell to atom map                          I   N=          14
           1           1           1           2           2           3
           3           4           4           4           5           5
           6           6
Primitive exponents                        R   N=          36
  3.04752488E+03  4.57369518E+02  1.03948685E+02  2.92101553E+01  9.28666296E+00
  3.16392696E+00  7.86827235E+00  1.88128854E+00  5.44249258E-01  1.68714478E-01
  1.87311370E+01  2.82539436E+00  6.40121692E-01  1.61277759E-01  1.87311370E+01
  2.82539436E+00  6.40121692E-01  1.61277759E-01  3.04752488E+03  4.57369518E+02
  1.03948685E+02  2.92101553E+01  9.28666296E+00  3.16392696E+00  7.86827235E+00
  1.88128854E+00  5.44249258E-01  1.68714478E-01  1.87311370E+01  2.82539436E+00
  6.40121692E-01  1.61277759E-01  1.87311370E+01  2.82539436E+00  6.40121692E-01
  1.61277759E-01
Contraction coefficients                   R   N=          36
  1.83473713E-03  1.40373228E-02  6.88426223E-02  2.32184443E-01  4.67941348E-01
  3.62311985E-01 -1.19332420E-01 -1.60854152E-01  1.14345644E+00  1.00000000E+00
  3.34946043E-02  2.34726953E-01  8.13757326E-01  1.00000000E+00  3.34946043E-02
  2.34726953E-01  8.13757326E-01  1.00000000E+00  1.83473713E-03  1.40373228E-02
  6.88426223E-02  2.32184443E-01  4.67941348E-01  3.62311985E-01 -1.19332420E-01
 -1.60854152E-01  1.14345644E+00  1.00000000E+00  3.34946043E-02  2.34726953E-01
  8.13757326E-01  1.00000000E+00  3.34946043E-02  2.34726953E-01  8.13757326E-01
  1.00000000E+00
P(S=P) Contraction coefficients            R   N=          36
  0.00000000E+00  0.00000000E+00  0.00000000E+00  0.00000000E+00  0.00000000E+00
  0.00000000E+00  6.89990666E-02  3.16423961E-01  7.44308291E-01  1.00000000E+00
  0.00000000E+00  0.00000000E+00  0.00000000E+00  0.00000000E+00  0.00000000E+00
  0.00000000E+00  0.00000000E+00  0.00000000E+00  0.00000000E+00  0.00000000E+00
  0.00000000E+00  0.00000000E+00  0.00000000E+00  0.00000000E+00  6.89990666E-02
  3.16423961E-01  7.44308291E-01  1.00000000E+00  0.00000000E+00  0.00000000E+00
  0.00000000E+00  0.00000000E+00  0.00000000E+00  0.00000000E+00  0.00000000E+00
  0.00000000E+00
Coordinates of each shell                  R   N=          42
 -5.93716757E-36 -1.28047843E+00 -3.15662305E-32 -5.93716757E-36 -1.28047843E+00
 -3.15662305E-32 -5.93716757E-36 -1.28047843E+00 -3.15662305E-32 -1.74709113E+00
 -2.29841003E+00 -4.58929014E-32 -1.74709113E+00 -2.29841003E+00 -4.58929014E-32
  1.75310823E+00 -2.28801190E+00 -6.72082117E-32  1.75310823E+00 -2.28801190E+00
 -6.72082117E-32  2.13242496E-16  1.28047843E+00 -6.31324609E-32  2.13242496E-16
  1.28047843E+00 -6.31324609E-32  2.13242496E-16  1.28047843E+00 -6.31324609E-32
  1.74709113E+00  2.29841003E+00 -6.41315572E-32  1.74709113E+00  2.29841003E+00
 -6.41315572E-32 -1.75310823E+00  2.28801190E+00 -1.62165912E-31 -1.75310823E+00
  2.28801190E+00 -1.62165912E-31
Constraint Structure                       R   N=          18
 -5.93716757E-36 -1.28047843E+00 -3.15662305E-32 -1.74709113E+00 -2.29841003E+00
 -4.58929014E-32  1.75310823E+00 -2.28801190E+00 -6.72082117E-32  2.13242496E-16
  1.28047843E+00 -6.31324609E-32  1.74709113E+00  2.29841003E+00 -6.41315572E-32
 -1.75310823E+00  2.28801190E+00 -1.62165912E-31
Num ILSW                                   I              100
ILSW                                       I   N=         100
           0           1           0           0           2           0
           0           0           3           0        1009          -1
           5           0           0           0           0           0
           0           0           0           0           0           0
           1           0           0           0           0           0
           0           0      100000           0          -1           0
           0           0           0           0           0           0
           0           0           0           1           0           0
           0           0           1           0           0           0
           0           0           4          41           0           0
           0           0          13           0           0           0
           0           0           0           6           0           0
           0           0           0           0           0           0
           0           0           0           0           0           0
           0           0           0           0           0           0
           0           0           0           0           0           0
           0           0           0           0
Num RLSW                                   I               41
RLSW                                       R   N=          41
  7.50000000E-01  7.50000000E-01  1.00000000E+00  1.00000000E+00  2.50000000E-01
  0.00000000E+00  0.00000000E+00  1.00000000E+00  0.00000000E+00  0.00000000E+00
  0.00000000E+00  0.00000000E+00  1.00000000E+00  0.00000000E+00  0.00000000E+00
  0.00000000E+00  0.00000000E+00  1.00000000E+00  0.00000000E+00  0.00000000E+00
  0.00000000E+00  0.00000000E+00  1.00000000E+00  0.00000000E+00  0.00000000E+00
  0.00000000E+00  0.00000000E+00  1.00000000E+00  0.00000000E+00  0.00000000E+00
  0.00000000E+00  0.00000000E+00  1.00000000E+00  0.00000000E+00  0.00000000E+00
  0.00000000E+00  0.00000000E+00  0.00000000E+00  1.00000000E+00  1.00000000E+00
  0.00000000E+00
MxBond                                     I                3
NBond                                      I   N=           6
           3           1           1           3           1           1
IBond                                      I   N=          18
           2           3           4           1           0           0
           1           0           0           1           5           6
           4           0           0           4           0           0
RBond                                      R   N=          18
  1.00000000E+00  1.00000000E+00  2.00000000E+00  1.00000000E+00  0.00000000E+00
  0.00000000E+00  1.00000000E+00  0.00000000E+00  0.00000000E+00  2.00000000E+00
  1.00000000E+00  1.00000000E+00  1.00000000E+00  0.00000000E+00  0.00000000E+00
  1.00000000E+00  0.00000000E+00  0.00000000E+00
Virial Ratio                               R      2.004812607920633E+00
SCF Energy                                 R     -7.846268446007088E+01
Total Energy                               R     -7.846268446007088E+01
RMS Density                                R      4.365669673209777E-10
External E-field                           R   N=          35
  0.00000000E+00  0.00000000E+00  0.00000000E+00  0.00000000E+00  0.00000000E+00
  0.00000000E+00  0.00000000E+00  0.00000000E+00  0.00000000E+00  0.00000000E+00
  0.00000000E+00  0.00000000E+00  0.00000000E+00  0.00000000E+00  0.00000000E+00
  0.00000000E+00  0.00000000E+00  0.00000000E+00  0.00000000E+00  0.00000000E+00
  0.00000000E+00  0.00000000E+00  0.00000000E+00  0.00000000E+00  0.00000000E+00
  0.00000000E+00  0.00000000E+00  0.00000000E+00  0.00000000E+00  0.00000000E+00
  0.00000000E+00  0.00000000E+00  0.00000000E+00  0.00000000E+00  0.00000000E+00
IOpCl                                      I                0
IROHF                                      I                0
Alpha Orbital Energies                     R   N=          26
  9.47347712E-01  1.65351011E-03  0.00000000E+00  0.00000000E+00  0.00000000E+00
  0.00000000E+00  0.00000000E+00  0.00000000E+00  0.00000000E+00  0.00000000E+00
  0.00000000E+00  0.00000000E+00  0.00000000E+00  0.00000000E+00  0.00000000E+00
  0.00000000E+00  0.00000000E+00  0.00000000E+00  0.00000000E+00  0.00000000E+00
  0.00000000E+00  0.00000000E+00  0.00000000E+00  0.00000000E+00  9.47347712E-01
  1.65351011E-03
Alpha MO coefficients                      R   N=         676
 -8.16020835E-03  2.00169608E-02 -2.53910107E-02  4.40988544E-02  4.00166055E-30
  3.67108143E-02 -2.23550490E-02  2.84328411E-02  1.07884188E-30  3.32216067E-02
  3.50549716E-02 -4.83849747E-02 -6.44675805E-02  1.12871900E-01 -2.20161532E-01
  3.18823218E-01 -2.00785080E-01 -1.80835568E-29 -2.03190864E-01  1.35625806E-01
 -8.14898764E-02 -1.33170236E-29  2.92854089E-02  6.26863945E-02 -3.30726264E-01
 -2.15888705E-01  3.33835001E-02 -4.29366473E-02  3.51653825E-01 -2.44148489E-01
  4.04280688E-14 -2.37736342E-03  1.50557290E-01 -7.62818686E-02  2.97850055E-14
 -1.38094503E-01 -1.04391930E-01  2.62834646E-01  2.08253993E-01  1.76645286E-01
 -2.01312397E-01 -4.99340747E-02  1.39405846E-01  4.04280791E-14 -1.65077045E-01
 -3.40908449E-02  4.13205661E-02  2.97850017E-14 -9.06956524E-02 -5.34222236E-02
  2.37915242E-02  7.50015212E-02  0.00000000E+00  0.00000000E+00  0.00000000E+00
  0.00000000E+00  0.00000000E+00  0.00000000E+00  0.00000000E+00  0.00000000E+00
  0.00000000E+00  0.00000000E+00  0.00000000E+00  0.00000000E+00  0.00000000E+00
  0.00000000E+00  0.00000000E+00  0.00000000E+00  0.00000000E+00  0.00000000E+00
  0.00000000E+00  0.00000000E+00  0.00000000E+00  0.00000000E+00  0.00000000E+00
  0.00000000E+00  0.00000000E+00  0.00000000E+00  0.00000000E+00  0.00000000E+00
  0.00000000E+00  0.00000000E+00  0.00000000E+00  0.00000000E+00  0.00000000E+00
  0.00000000E+00  0.00000000E+00  0.00000000E+00  0.00000000E+00  0.00000000E+00
  0.00000000E+00  0.00000000E+00  0.00000000E+00  0.00000000E+00  0.00000000E+00
  0.00000000E+00  0.00000000E+00  0.00000000E+00  0.00000000E+00  0.00000000E+00
  0.00000000E+00  0.00000000E+00  0.00000000E+00  0.00000000E+00  0.00000000E+00
  0.00000000E+00  0.00000000E+00  0.00000000E+00  0.00000000E+00  0.00000000E+00
  0.00000000E+00  0.00000000E+00  0.00000000E+00  0.00000000E+00  0.00000000E+00
  0.00000000E+00  0.00000000E+00  0.00000000E+00  0.00000000E+00  0.00000000E+00
  0.00000000E+00  0.00000000E+00  0.00000000E+00  0.00000000E+00  0.00000000E+00
  0.00000000E+00  0.00000000E+00  0.00000000E+00  0.00000000E+00  0.00000000E+00
  0.00000000E+00  0.00000000E+00  0.00000000E+00  0.00000000E+00  0.00000000E+00
  0.00000000E+00  0.00000000E+00  0.00000000E+00  0.00000000E+00  0.00000000E+00
  0.00000000E+00  0.00000000E+00  0.00000000E+00  0.00000000E+00  0.00000000E+00
  0.00000000E+00  0.00000000E+00  0.00000000E+00  0.00000000E+00  0.00000000E+00
  0.00000000E+00  0.00000000E+00  0.00000000E+00  0.00000000E+00  0.00000000E+00
  0.00000000E+00  0.00000000E+00  0.00000000E+00  0.00000000E+00  0.00000000E+00
  0.00000000E+00  0.00000000E+00  0.00000000E+00  0.00000000E+00  0.00000000E+00
  0.00000000E+00  0.00000000E+00  0.00000000E+00  0.00000000E+00  0.00000000E+00
  0.00000000E+00  0.00000000E+00  0.00000000E+00  0.00000000E+00  0.00000000E+00
  0.00000000E+00  0.00000000E+00  0.00000000E+00  0.00000000E+00  0.00000000E+00
  0.00000000E+00  0.00000000E+00  0.00000000E+00  0.00000000E+00  0.00000000E+00
  0.00000000E+00  0.00000000E+00  0.00000000E+00  0.00000000E+00  0.00000000E+00
  0.00000000E+00  0.00000000E+00  0.00000000E+00  0.00000000E+00  0.00000000E+00
  0.00000000E+00  0.00000000E+00  0.00000000E+00  0.00000000E+00  0.00000000E+00
  0.00000000E+00  0.00000000E+00  0.00000000E+00  0.00000000E+00  0.00000000E+00
  0.00000000E+00  0.00000000E+00  0.00000000E+00  0.00000000E+00  0.00000000E+00
  0.00000000E+00  0.00000000E+00  0.00000000E+00  0.00000000E+00  0.00000000E+00
  0.00000000E+00  0.00000000E+00  0.00000000E+00  0.00000000E+00  0.00000000E+00
  0.00000000E+00  0.00000000E+00  0.00000000E+00  0.00000000E+00  0.00000000E+00
  0.00000000E+00  0.00000000E+00  0.00000000E+00  0.00000000E+00  0.00000000E+00
  0.00000000E+00  0.00000000E+00  0.00000000E+00  0.00000000E+00  0.00000000E+00
  0.00000000E+00  0.00000000E+00  0.00000000E+00  0.00000000E+00  0.00000000E+00
  0.00000000E+00  0.00000000E+00  0.00000000E+00  0.00000000E+00  0.00000000E+00
  0.00000000E+00  0.00000000E+00  0.00000000E+00  0.00000000E+00  0.00000000E+00
  0.00000000E+00  0.00000000E+00  0.00000000E+00  0.00000000E+00  0.00000000E+00
  0.00000000E+00  0.00000000E+00  0.00000000E+00  0.00000000E+00  0.00000000E+00
  0.00000000E+00  0.00000000E+00  0.00000000E+00  0.00000000E+00  0.00000000E+00
  0.00000000E+00  0.00000000E+00  0.00000000E+00  0.00000000E+00  0.00000000E+00
  0.00000000E+00  0.00000000E+00  0.00000000E+00  0.00000000E+00  0.00000000E+00
  0.00000000E+00  0.00000000E+00  0.00000000E+00  0.00000000E+00  0.00000000E+00
  0.00000000E+00  0.00000000E+00  0.00000000E+00  0.00000000E+00  0.00000000E+00
  0.00000000E+00  0.00000000E+00  0.00000000E+00  0.00000000E+00  0.00000000E+00
  0.00000000E+00  0.00000000E+00  0.00000000E+00  0.00000000E+00  0.00000000E+00
  0.00000000E+00  0.00000000E+00  0.00000000E+00  0.00000000E+00  0.00000000E+00
  0.00000000E+00  0.00000000E+00  0.00000000E+00  0.00000000E+00  0.00000000E+00
  0.00000000E+00  0.00000000E+00  0.00000000E+00  0.00000000E+00  0.00000000E+00
  0.00000000E+00  0.00000000E+00  0.00000000E+00  0.00000000E+00  0.00000000E+00
  0.00000000E+00  0.00000000E+00  0.00000000E+00  0.00000000E+00  0.00000000E+00
  0.00000000E+00  0.00000000E+00  0.00000000E+00  0.00000000E+00  0.00000000E+00
  0.00000000E+00  0.00000000E+00  0.00000000E+00  0.00000000E+00  0.00000000E+00
  0.00000000E+00  0.00000000E+00  0.00000000E+00  0.00000000E+00  0.00000000E+00
  0.00000000E+00  0.00000000E+00  0.00000000E+00  0.00000000E+00  0.00000000E+00
  0.00000000E+00  0.00000000E+00  0.00000000E+00  0.00000000E+00  0.00000000E+00
  0.00000000E+00  0.00000000E+00  0.00000000E+00  0.00000000E+00  0.00000000E+00
  0.00000000E+00  0.00000000E+00  0.00000000E+00  0.00000000E+00  0.00000000E+00
  0.00000000E+00  0.00000000E+00  0.00000000E+00  0.00000000E+00  0.00000000E+00
  0.00000000E+00  0.00000000E+00  0.00000000E+00  0.00000000E+00  0.00000000E+00
  0.00000000E+00  0.00000000E+00  0.00000000E+00  0.00000000E+00  0.00000000E+00
  0.00000000E+00  0.00000000E+00  0.00000000E+00  0.00000000E+00  0.00000000E+00
  0.00000000E+00  0.00000000E+00  0.00000000E+00  0.00000000E+00  0.00000000E+00
  0.00000000E+00  0.00000000E+00  0.00000000E+00  0.00000000E+00  0.00000000E+00
  0.00000000E+00  0.00000000E+00  0.00000000E+00  0.00000000E+00  0.00000000E+00
  0.00000000E+00  0.00000000E+00  0.00000000E+00  0.00000000E+00  0.00000000E+00
  0.00000000E+00  0.00000000E+00  0.00000000E+00  0.00000000E+00  0.00000000E+00
  0.00000000E+00  0.00000000E+00  0.00000000E+00  0.00000000E+00  0.00000000E+00
  0.00000000E+00  0.00000000E+00  0.00000000E+00  0.00000000E+00  0.00000000E+00
  0.00000000E+00  0.00000000E+00  0.00000000E+00  0.00000000E+00  0.00000000E+00
  0.00000000E+00  0.00000000E+00  0.00000000E+00  0.00000000E+00  0.00000000E+00
  0.00000000E+00  0.00000000E+00  0.00000000E+00  0.00000000E+00  0.00000000E+00
  0.00000000E+00  0.00000000E+00  0.00000000E+00  0.00000000E+00  0.00000000E+00
  0.00000000E+00  0.00000000E+00  0.00000000E+00  0.00000000E+00  0.00000000E+00
  0.00000000E+00  0.00000000E+00  0.00000000E+00  0.00000000E+00  0.00000000E+00
  0.00000000E+00  0.00000000E+00  0.00000000E+00  0.00000000E+00  0.00000000E+00
  0.00000000E+00  0.00000000E+00  0.00000000E+00  0.00000000E+00  0.00000000E+00
  0.00000000E+00  0.00000000E+00  0.00000000E+00  0.00000000E+00  0.00000000E+00
  0.00000000E+00  0.00000000E+00  0.00000000E+00  0.00000000E+00  0.00000000E+00
  0.00000000E+00  0.00000000E+00  0.00000000E+00  0.00000000E+00  0.00000000E+00
  0.00000000E+00  0.00000000E+00  0.00000000E+00  0.00000000E+00  0.00000000E+00
  0.00000000E+00  0.00000000E+00  0.00000000E+00  0.00000000E+00  0.00000000E+00
  0.00000000E+00  0.00000000E+00  0.00000000E+00  0.00000000E+00  0.00000000E+00
  0.00000000E+00  0.00000000E+00  0.00000000E+00  0.00000000E+00  0.00000000E+00
  0.00000000E+00  0.00000000E+00  0.00000000E+00  0.00000000E+00  0.00000000E+00
  0.00000000E+00  0.00000000E+00  0.00000000E+00  0.00000000E+00  0.00000000E+00
  0.00000000E+00  0.00000000E+00  0.00000000E+00  0.00000000E+00  0.00000000E+00
  0.00000000E+00  0.00000000E+00  0.00000000E+00  0.00000000E+00  0.00000000E+00
  0.00000000E+00  0.00000000E+00  0.00000000E+00  0.00000000E+00  0.00000000E+00
  0.00000000E+00  0.00000000E+00  0.00000000E+00  0.00000000E+00  0.00000000E+00
  0.00000000E+00  0.00000000E+00  0.00000000E+00  0.00000000E+00  0.00000000E+00
  0.00000000E+00  0.00000000E+00  0.00000000E+00  0.00000000E+00  0.00000000E+00
  0.00000000E+00  0.00000000E+00  0.00000000E+00  0.00000000E+00  0.00000000E+00
  0.00000000E+00  0.00000000E+00  0.00000000E+00  0.00000000E+00  0.00000000E+00
  0.00000000E+00  0.00000000E+00  0.00000000E+00  0.00000000E+00  0.00000000E+00
  0.00000000E+00  0.00000000E+00  0.00000000E+00  0.00000000E+00  0.00000000E+00
  0.00000000E+00  0.00000000E+00  0.00000000E+00  0.00000000E+00  0.00000000E+00
  0.00000000E+00  0.00000000E+00  0.00000000E+00  0.00000000E+00  0.00000000E+00
  0.00000000E+00  0.00000000E+00  0.00000000E+00  0.00000000E+00  0.00000000E+00
  0.00000000E+00  0.00000000E+00  0.00000000E+00  0.00000000E+00  0.00000000E+00
  0.00000000E+00  0.00000000E+00  0.00000000E+00  0.00000000E+00  0.00000000E+00
  0.00000000E+00  0.00000000E+00  0.00000000E+00  0.00000000E+00  0.00000000E+00
  0.00000000E+00  0.00000000E+00  0.00000000E+00  0.00000000E+00  0.00000000E+00
  0.00000000E+00  0.00000000E+00  0.00000000E+00  0.00000000E+00  0.00000000E+00
  0.00000000E+00  0.00000000E+00  0.00000000E+00  0.00000000E+00  0.00000000E+00
  0.00000000E+00  0.00000000E+00  0.00000000E+00  0.00000000E+00  0.00000000E+00
  0.00000000E+00  0.00000000E+00  0.00000000E+00  0.00000000E+00  0.00000000E+00
  0.00000000E+00  0.00000000E+00  0.00000000E+00  0.00000000E+00  0.00000000E+00
  0.00000000E+00  0.00000000E+00  0.00000000E+00  0.00000000E+00  0.00000000E+00
  0.00000000E+00  0.00000000E+00  0.00000000E+00  0.00000000E+00  0.00000000E+00
  0.00000000E+00  0.00000000E+00  0.00000000E+00  0.00000000E+00  0.00000000E+00
  0.00000000E+00  0.00000000E+00  0.00000000E+00  0.00000000E+00  7.96041351E-03
  2.07135668E-02  7.32076759E-02  1.31760236E-02 -3.16796498E-30 -1.40103172E-02
  4.93316473E-03 -1.46488653E-02 -8.54078761E-31 -4.20674744E-04 -4.34162619E-02
  4.91536333E-02  6.70226864E-02 -9.34923874E-02  4.29866004E-01 -6.24629828E-01
  3.62455009E-01  1.43160755E-29  4.38427782E-01 -3.21511307E-01  1.98706821E-01
  1.05425895E-29  2.47326865E-02 -3.88136055E-02 -8.99351507E-01 -5.46414767E-01
  9.42223617E-03  3.19231597E-02 -3.01360056E-04 -5.56091630E-03 -8.22310951E-16
 -2.73784819E-01 -4.27517092E-01 -3.07222160E-01 -6.05829982E-16 -3.67169118E-02
 -2.96959130E-01  2.92321707E-02  5.05592164E-02  1.17208431E-02  2.18664468E-01
 -1.55187155E-01  4.96549900E-02 -8.22311160E-16 -1.04381077E+00  1.28757880E+00
 -6.62642906E-01 -6.05829906E-16 -5.26574972E-02 -3.26699623E-01 -9.26609725E-01
  2.74074031E+00
Total SCF Density                          R   N=         351
  2.06242745E+00 -9.27257784E-02  3.17261243E-01  1.89802573E-05 -4.55806076E-05
  4.15636517E-01  1.95422519E-04  1.21879817E-03 -7.61157377E-05  4.20125553E-01
  0.00000000E+00  0.00000000E+00  0.00000000E+00  0.00000000E+00  3.16420721E-01
 -1.86642599E-01  2.62848100E-01 -2.81599686E-05 -3.96681224E-02  0.00000000E+00
  2.30245044E-01  4.72983580E-05 -1.81215309E-04  1.74854299E-01 -3.07801615E-04
  0.00000000E+00 -1.20994672E-04  7.41111243E-02  3.02162375E-03 -1.57369012E-02
 -1.17578390E-04  1.45262033E-01  0.00000000E+00 -2.55275374E-02 -1.42863432E-04
  5.18973122E-02  0.00000000E+00  0.00000000E+00  0.00000000E+00  0.00000000E+00
  2.33119951E-01  0.00000000E+00  0.00000000E+00  0.00000000E+00  1.71748902E-01
 -6.40328942E-02  1.21608882E-01 -2.30252515E-01 -1.36263299E-01  0.00000000E+00
  1.15433208E-01 -9.81025293E-02 -5.32882393E-02  0.00000000E+00  2.21975629E-01
 -1.04109927E-02  3.88128323E-02 -1.74983026E-01 -1.02441522E-01  0.00000000E+00
  4.14294902E-02 -7.54094127E-02 -3.77056180E-02  0.00000000E+00  1.49449877E-01
  1.09797894E-01 -6.38765331E-02  1.21279901E-01  2.30958746E-01 -1.35572089E-01
  0.00000000E+00  1.15071348E-01  9.84529657E-02 -5.31725386E-02  0.00000000E+00
 -3.96863551E-02 -5.33940241E-02  2.22034679E-01 -1.02895399E-02  3.86056968E-02
  1.75599111E-01 -1.02201044E-01  0.00000000E+00  4.11907419E-02  7.57649101E-02
 -3.77499815E-02  0.00000000E+00 -5.33900295E-02 -5.02134695E-02  1.49705194E-01
  1.10154223E-01  1.85150166E-02 -3.92235320E-02  8.62470619E-05 -8.39822868E-02
  0.00000000E+00  9.43543716E-03  1.20354112E-04 -1.03217113E-02  0.00000000E+00
  1.18252308E-02  1.26885524E-02  1.17973778E-02  1.26571533E-02  2.06242745E+00
 -3.92235320E-02  6.47382726E-02 -2.56775430E-04  1.64516350E-01  0.00000000E+00
  1.58858344E-02 -2.74978919E-04  4.01968136E-02  0.00000000E+00 -2.72789393E-02
 -2.59208750E-02 -2.73060254E-02 -2.59297485E-02 -9.27257784E-02  3.17261243E-01
 -8.62470619E-05  2.56775430E-04  1.99307692E-02  4.43451161E-04  0.00000000E+00
  3.12069322E-04 -6.73609650E-03  3.58767113E-04  0.00000000E+00  2.36048409E-02
  4.20568068E-02 -2.36287565E-02 -4.22735573E-02 -1.89802573E-05  4.55806076E-05
  4.15636517E-01  8.39822868E-02 -1.64516350E-01  4.43451161E-04 -3.13316920E-01
  0.00000000E+00 -1.23539958E-01  4.40578482E-04 -1.09054962E-01  0.00000000E+00
  3.86624962E-02  6.01976330E-02  3.86488973E-02  6.03964307E-02 -1.95422519E-04
 -1.21879817E-03 -7.61157377E-05  4.20125553E-01  0.00000000E+00  0.00000000E+00
  0.00000000E+00  0.00000000E+00  3.16420721E-01  0.00000000E+00  0.00000000E+00
  0.00000000E+00  2.33119951E-01  0.00000000E+00  0.00000000E+00  0.00000000E+00
  0.00000000E+00  0.00000000E+00  0.00000000E+00  0.00000000E+00  0.00000000E+00
  3.16420721E-01  9.43543716E-03  1.58858344E-02 -3.12069322E-04  1.23539958E-01
  0.00000000E+00 -2.14459736E-02 -2.45701676E-04  2.92799990E-02  0.00000000E+00
 -3.32740908E-02 -2.25193179E-02 -3.34042153E-02 -2.26026483E-02 -1.86642599E-01
  2.62848100E-01  2.81599686E-05  3.96681224E-02  0.00000000E+00  2.30245044E-01
 -1.20354112E-04  2.74978919E-04 -6.73609650E-03  4.40578482E-04  0.00000000E+00
  2.45701676E-04 -9.22165333E-03  2.33210787E-04  0.00000000E+00  1.83498329E-02
  2.41065272E-02 -1.84205472E-02 -2.43012133E-02 -4.72983580E-05  1.81215309E-04
  1.74854299E-01 -3.07801615E-04  0.00000000E+00  1.20994672E-04  7.41111243E-02
  1.03217113E-02 -4.01968136E-02  3.58767113E-04 -1.09054962E-01  0.00000000E+00
 -2.92799990E-02  2.33210787E-04 -3.95067352E-02  0.00000000E+00  2.01404059E-02
  2.32723191E-02  2.03653739E-02  2.35367172E-02 -3.02162375E-03  1.57369012E-02
 -1.17578390E-04  1.45262033E-01  0.00000000E+00  2.55275374E-02 -1.42863432E-04
  5.18973122E-02  0.00000000E+00  0.00000000E+00  0.00000000E+00  0.00000000E+00
  2.33119951E-01  0.00000000E+00  0.00000000E+00  0.00000000E+00  1.71748902E-01
  0.00000000E+00  0.00000000E+00  0.00000000E+00  0.00000000E+00  0.00000000E+00
  0.00000000E+00  0.00000000E+00  0.00000000E+00  2.33119951E-01  0.00000000E+00
  0.00000000E+00  0.00000000E+00  1.71748902E-01  1.18252308E-02 -2.72789393E-02
 -2.36048409E-02 -3.86624962E-02  0.00000000E+00 -3.32740908E-02 -1.83498329E-02
 -2.01404059E-02  0.00000000E+00  3.50658578E-02  4.79496525E-02 -2.98916555E-02
 -2.83756578E-02 -6.40328942E-02  1.21608882E-01  2.30252515E-01  1.36263299E-01
  0.00000000E+00  1.15433208E-01  9.81025293E-02  5.32882393E-02  0.00000000E+00
  2.21975629E-01  1.26885524E-02 -2.59208750E-02 -4.20568068E-02 -6.01976330E-02
  0.00000000E+00 -2.25193179E-02 -2.41065272E-02 -2.32723191E-02  0.00000000E+00
  4.79496525E-02  5.25607308E-02 -2.84271118E-02 -2.61114643E-02 -1.04109927E-02
  3.88128323E-02  1.74983026E-01  1.02441522E-01  0.00000000E+00  4.14294902E-02
  7.54094127E-02  3.77056180E-02  0.00000000E+00  1.49449877E-01  1.09797894E-01
  1.17973778E-02 -2.73060254E-02  2.36287565E-02 -3.86488973E-02  0.00000000E+00
 -3.34042153E-02  1.84205472E-02 -2.03653739E-02  0.00000000E+00 -2.98916555E-02
 -2.84271118E-02  3.50746726E-02  4.81314854E-02 -6.38765331E-02  1.21279901E-01
 -2.30958746E-01  1.35572089E-01  0.00000000E+00  1.15071348E-01 -9.84529657E-02
  5.31725386E-02  0.00000000E+00 -3.96863551E-02 -5.33940241E-02  2.22034679E-01
  1.26571533E-02 -2.59297485E-02  4.22735573E-02 -6.03964307E-02  0.00000000E+00
 -2.26026483E-02  2.43012133E-02 -2.35367172E-02  0.00000000E+00 -2.83756578E-02
 -2.61114643E-02  4.81314854E-02  5.28416797E-02 -1.02895399E-02  3.86056968E-02
 -1.75599111E-01  1.02201044E-01  0.00000000E+00  4.11907419E-02 -7.57649101E-02
  3.77499815E-02  0.00000000E+00 -5.33900295E-02 -5.02134695E-02  1.49705194E-01
  1.10154223E-01
Mulliken Charges                           R   N=           6
 -3.20988959E-01  1.60701890E-01  1.60287069E-01 -3.20988959E-01  1.60701890E-01
  1.60287069E-01
NPA Charges                                R   N=           6
 -4.54057471E-01  2.27190802E-01  2.26866668E-01 -4.54057471E-01  2.27190802E-01
  2.26866668E-01
ONIOM Charges                              I   N=          16
           0           0           0           0           0           0
           0           0           0           0           0           0
           0           0           0           0
ONIOM Multiplicities                       I   N=          16
           1           0           0           0           0           0