C2H4_pio
SP        RPBE1PBE                                                    6-31G               
Number of atoms                            I                6
Info1-9                                    I   N=           9
          16          14           0           0           0         110
           1          18        -302
Full Title                                 C   N=           1
C2H4        
Route                                      C   N=           5
#p pbe1pbe/6-31G gfinput pop=nboread formcheck int=ultrafine
Charge                                     I                0
Multiplicity                               I                1
Number of electrons                        I               16
Number of alpha electrons                  I                8
Number of beta electrons                   I                8
Number of basis functions                  I               26
Number of independent functions            I               26
Number of point charges in /Mol/           I                0
Number of translation vectors              I                0
Atomic numbers                             I   N=           6
           6           1           1           6           1           1
Nuclear charges                            R   N=           6
  6.00000000E+00  1.00000000E+00  1.00000000E+00  6.00000000E+00  1.00000000E+00
  1.00000000E+00
Current cartesian coordinates              R   N=          18
 -1.11022302E-16 -1.28047843E+00 -7.39557099E-32 -1.74709113E+00 -2.29841003E+00
 -9.86076132E-32  1.75310823E+00 -2.28801190E+00 -1.47911420E-31  1.11022302E-16
  1.28047843E+00 -4.93038066E-32  1.74709113E+00  2.29841003E+00  0.00000000E+00
 -1.75310823E+00  2.28801190E+00 -4.93038066E-32
Number of symbols in /Mol/                 I                0
Force Field                                I                0
Atom Types                                 C   N=           6
                                                            
            
Int Atom Types                             I   N=           6
           0           0           0           0           0           0
MM charges                                 R   N=           6
  0.00000000E+00  0.00000000E+00  0.00000000E+00  0.00000000E+00  0.00000000E+00
  0.00000000E+00
Integer atomic weights                     I   N=           6
          12           1           1          12           1           1
Real atomic weights                        R   N=           6
  1.20000000E+01  1.00782504E+00  1.00782504E+00  1.20000000E+01  1.00782504E+00
  1.00782504E+00
Atom fragment info                         I   N=           6
           0           0           0           0           0           0
Atom residue num                           I   N=           6
           0           0           0           0           0           0
Nuclear spins                              I   N=           6
           0           1           1           0           1           1
Nuclear ZEff                               R   N=           6
 -3.60000000E+00 -1.00000000E+00 -1.00000000E+00 -3.60000000E+00 -1.00000000E+00
 -1.00000000E+00
Nuclear ZNuc                               R   N=           6
  6.00000000E+00  1.00000000E+00  1.00000000E+00  6.00000000E+00  1.00000000E+00
  1.00000000E+00
Nuclear QMom                               R   N=           6
  0.00000000E+00  0.00000000E+00  0.00000000E+00  0.00000000E+00  0.00000000E+00
  0.00000000E+00
Nuclear GFac                               R   N=           6
  0.00000000E+00  2.79284600E+00  2.79284600E+00  0.00000000E+00  2.79284600E+00
  2.79284600E+00
MicOpt                                     I   N=           6
          -1          -1          -1          -1          -1          -1
Number of residues                         I                0
Number of secondary structures             I                0
Number of contracted shells                I               14
Number of primitive shells                 I               36
Pure/Cartesian d shells                    I                1
Pure/Cartesian f shells                    I                0
Highest angular momentum                   I                1
Largest degree of contraction              I                6
Shell types                                I   N=          14
           0          -1          -1           0           0           0
           0           0          -1          -1           0           0
           0           0
Number of primitives per shell             I   N=          14
           6           3           1           3           1           3
           1           6           3           1           3           1
           3           1
Shell to atom map                          I   N=          14
           1           1           1           2           2           3
           3           4           4           4           5           5
           6           6
Primitive exponents                        R   N=          36
  3.04752488E+03  4.57369518E+02  1.03948685E+02  2.92101553E+01  9.28666296E+00
  3.16392696E+00  7.86827235E+00  1.88128854E+00  5.44249258E-01  1.68714478E-01
  1.87311370E+01  2.82539436E+00  6.40121692E-01  1.61277759E-01  1.87311370E+01
  2.82539436E+00  6.40121692E-01  1.61277759E-01  3.04752488E+03  4.57369518E+02
  1.03948685E+02  2.92101553E+01  9.28666296E+00  3.16392696E+00  7.86827235E+00
  1.88128854E+00  5.44249258E-01  1.68714478E-01  1.87311370E+01  2.82539436E+00
  6.40121692E-01  1.61277759E-01  1.87311370E+01  2.82539436E+00  6.40121692E-01
  1.61277759E-01
Contraction coefficients                   R   N=          36
  1.83473713E-03  1.40373228E-02  6.88426223E-02  2.32184443E-01  4.67941348E-01
  3.62311985E-01 -1.19332420E-01 -1.60854152E-01  1.14345644E+00  1.00000000E+00
  3.34946043E-02  2.34726953E-01  8.13757326E-01  1.00000000E+00  3.34946043E-02
  2.34726953E-01  8.13757326E-01  1.00000000E+00  1.83473713E-03  1.40373228E-02
  6.88426223E-02  2.32184443E-01  4.67941348E-01  3.62311985E-01 -1.19332420E-01
 -1.60854152E-01  1.14345644E+00  1.00000000E+00  3.34946043E-02  2.34726953E-01
  8.13757326E-01  1.00000000E+00  3.34946043E-02  2.34726953E-01  8.13757326E-01
  1.00000000E+00
P(S=P) Contraction coefficients            R   N=          36
  0.00000000E+00  0.00000000E+00  0.00000000E+00  0.00000000E+00  0.00000000E+00
  0.00000000E+00  6.89990666E-02  3.16423961E-01  7.44308291E-01  1.00000000E+00
  0.00000000E+00  0.00000000E+00  0.00000000E+00  0.00000000E+00  0.00000000E+00
  0.00000000E+00  0.00000000E+00  0.00000000E+00  0.00000000E+00  0.00000000E+00
  0.00000000E+00  0.00000000E+00  0.00000000E+00  0.00000000E+00  6.89990666E-02
  3.16423961E-01  7.44308291E-01  1.00000000E+00  0.00000000E+00  0.00000000E+00
  0.00000000E+00  0.00000000E+00  0.00000000E+00  0.00000000E+00  0.00000000E+00
  0.00000000E+00
Coordinates of each shell                  R   N=          42
 -5.93716757E-36 -1.28047843E+00 -3.15662305E-32 -5.93716757E-36 -1.28047843E+00
 -3.15662305E-32 -5.93716757E-36 -1.28047843E+00 -3.15662305E-32 -1.74709113E+00
 -2.29841003E+00 -4.58929014E-32 -1.74709113E+00 -2.29841003E+00 -4.58929014E-32
  1.75310823E+00 -2.28801190E+00 -6.72082117E-32  1.75310823E+00 -2.28801190E+00
 -6.72082117E-32  2.13242496E-16  1.28047843E+00 -6.31324609E-32  2.13242496E-16
  1.28047843E+00 -6.31324609E-32  2.13242496E-16  1.28047843E+00 -6.31324609E-32
  1.74709113E+00  2.29841003E+00 -6.41315572E-32  1.74709113E+00  2.29841003E+00
 -6.41315572E-32 -1.75310823E+00  2.28801190E+00 -1.62165912E-31 -1.75310823E+00
  2.28801190E+00 -1.62165912E-31
Constraint Structure                       R   N=          18
 -5.93716757E-36 -1.28047843E+00 -3.15662305E-32 -1.74709113E+00 -2.29841003E+00
 -4.58929014E-32  1.75310823E+00 -2.28801190E+00 -6.72082117E-32  2.13242496E-16
  1.28047843E+00 -6.31324609E-32  1.74709113E+00  2.29841003E+00 -6.41315572E-32
 -1.75310823E+00  2.28801190E+00 -1.62165912E-31
Num ILSW                                   I              100
ILSW                                       I   N=         100
           0           1           0           0           2           0
           0           0           3           0        1009          -1
           5           0           0           0           0           0
           0           0           0           0           0           0
           1           0           0           0           0           0
           0           0      100000           0          -1           0
           0           0           0           0           0           0
           0           0           0           1           0           0
           0           0           1           0           0           0
           0           0           4          41           0           0
           0           0          13           0           0           0
           0           0           0           6           0           0
           0           0           0           0           0           0
           0           0           0           0           0           0
           0           0           0           0           0           0
           0           0           0           0           0           0
           0           0           0           0
Num RLSW                                   I               41
RLSW                                       R   N=          41
  7.50000000E-01  7.50000000E-01  1.00000000E+00  1.00000000E+00  2.50000000E-01
  0.00000000E+00  0.00000000E+00  1.00000000E+00  0.00000000E+00  0.00000000E+00
  0.00000000E+00  0.00000000E+00  1.00000000E+00  0.00000000E+00  0.00000000E+00
  0.00000000E+00  0.00000000E+00  1.00000000E+00  0.00000000E+00  0.00000000E+00
  0.00000000E+00  0.00000000E+00  1.00000000E+00  0.00000000E+00  0.00000000E+00
  0.00000000E+00  0.00000000E+00  1.00000000E+00  0.00000000E+00  0.00000000E+00
  0.00000000E+00  0.00000000E+00  1.00000000E+00  0.00000000E+00  0.00000000E+00
  0.00000000E+00  0.00000000E+00  0.00000000E+00  1.00000000E+00  1.00000000E+00
  0.00000000E+00
MxBond                                     I                3
NBond                                      I   N=           6
           3           1           1           3           1           1
IBond                                      I   N=          18
           2           3           4           1           0           0
           1           0           0           1           5           6
           4           0           0           4           0           0
RBond                                      R   N=          18
  1.00000000E+00  1.00000000E+00  2.00000000E+00  1.00000000E+00  0.00000000E+00
  0.00000000E+00  1.00000000E+00  0.00000000E+00  0.00000000E+00  2.00000000E+00
  1.00000000E+00  1.00000000E+00  1.00000000E+00  0.00000000E+00  0.00000000E+00
  1.00000000E+00  0.00000000E+00  0.00000000E+00
Virial Ratio                               R      2.004812607920633E+00
SCF Energy                                 R     -7.846268446007088E+01
Total Energy                               R     -7.846268446007088E+01
RMS Density                                R      4.365669673209777E-10
External E-field                           R   N=          35
  0.00000000E+00  0.00000000E+00  0.00000000E+00  0.00000000E+00  0.00000000E+00
  0.00000000E+00  0.00000000E+00  0.00000000E+00  0.00000000E+00  0.00000000E+00
  0.00000000E+00  0.00000000E+00  0.00000000E+00  0.00000000E+00  0.00000000E+00
  0.00000000E+00  0.00000000E+00  0.00000000E+00  0.00000000E+00  0.00000000E+00
  0.00000000E+00  0.00000000E+00  0.00000000E+00  0.00000000E+00  0.00000000E+00
  0.00000000E+00  0.00000000E+00  0.00000000E+00  0.00000000E+00  0.00000000E+00
  0.00000000E+00  0.00000000E+00  0.00000000E+00  0.00000000E+00  0.00000000E+00
IOpCl                                      I                0
IROHF                                      I                0
Alpha Orbital Energies                     R   N=          26
  9.47347712E-01  1.65351011E-03  0.00000000E+00  0.00000000E+00  0.00000000E+00
  0.00000000E+00  0.00000000E+00  0.00000000E+00  0.00000000E+00  0.00000000E+00
  0.00000000E+00  0.00000000E+00  0.00000000E+00  0.00000000E+00  0.00000000E+00
  0.00000000E+00  0.00000000E+00  0.00000000E+00  0.00000000E+00  0.00000000E+00
  0.00000000E+00  0.00000000E+00  0.00000000E+00  0.00000000E+00  9.47347712E-01
  1.65351011E-03
Alpha MO coefficients                      R   N=         676
 -1.13390264E-02  2.83731436E-03 -6.53478317E-02  2.63972203E-02  5.10385043E-30
  3.74792353E-02 -2.05894377E-02  3.13852596E-02  1.37599067E-30  2.63084269E-02
  5.44332750E-02 -6.84458210E-02 -9.21466847E-02  1.46527734E-01 -4.39435322E-01
  6.37680856E-01 -3.82401196E-01 -2.30643674E-29 -4.31443819E-01  3.05899442E-01
 -1.87229443E-01 -1.69849731E-29  7.60954525E-03  7.32407463E-02  2.98923304E-01
  1.69893210E-01  3.31849870E-02 -4.35769542E-02  3.51587233E-01 -2.43984914E-01
  4.04364309E-14  3.19078712E-03  1.59220098E-01 -7.00184567E-02  2.97911662E-14
 -1.37319274E-01 -9.83314133E-02  2.62185830E-01  2.07182760E-01  1.76370403E-01
 -2.05717504E-01 -4.67678791E-02  1.38367239E-01  4.04364411E-14 -1.43816083E-01
 -6.02678604E-02  5.47874567E-02  2.97911624E-14 -8.96060597E-02 -4.67674474E-02
  4.26300408E-02  1.92506081E-02  9.85720826E-01  3.38548189E-02 -1.81616011E-04
  4.24613928E-04  5.53342802E-17 -2.73051039E-02 -1.05835136E-04 -3.17475037E-03
  8.00730371E-17 -8.58726174E-04  4.71043285E-03 -1.10132314E-03  4.51256159E-03
 -1.37405673E-01 -6.65832148E-03  2.36981942E-04  9.82307530E-04  7.82473885E-17
  1.31137361E-02  1.04702484E-04 -4.96813842E-03 -1.47437632E-17 -5.62576916E-05
 -4.39569049E-04 -3.50064696E-04 -6.87267218E-04  1.34904936E-01  6.17069542E-03
 -2.62680506E-02  1.72693370E-02 -3.13765627E-15  6.26861880E-03 -1.12490767E-02
  9.92028734E-03 -2.17652211E-15  9.94567444E-03  8.57518883E-03 -1.99977880E-02
 -1.47708097E-02  9.75076778E-01  4.87422530E-02  3.70694163E-03 -1.04799231E-02
 -3.01690957E-15 -1.21527918E-02  2.55793925E-03 -1.12961235E-03 -2.13948629E-15
  5.83449066E-03  8.68760182E-03 -2.69206373E-03 -8.69380760E-04  1.90211544E-01
 -3.72472804E-01 -1.07167179E-01 -5.64280192E-04 -7.13509119E-15 -3.06206381E-01
 -4.23578442E-02  2.26908956E-02 -5.09558383E-15 -9.08682365E-02 -1.08497647E-02
 -1.97858391E-01 -8.41598057E-02  7.75474684E-02 -1.45757928E-01 -7.47595046E-02
  1.48538660E-01 -6.99472135E-15 -7.98812795E-02 -2.78738309E-02  2.74536947E-02
 -5.32426139E-15 -4.20618578E-02 -7.91837553E-03  2.34016296E-02  2.96810271E-02
 -6.24512296E-02  1.26123949E-01 -2.19985374E-01 -1.54043370E-01 -5.14512421E-15
  1.38617143E-01 -8.36456705E-02 -4.93910211E-02 -3.93318353E-15  1.99855636E-01
  1.11567220E-01 -4.09596122E-03 -1.51047827E-02  1.07086940E-01 -2.12839671E-01
 -2.53015762E-01 -6.80840576E-02 -5.09101915E-15 -1.99711445E-01 -9.89023896E-02
 -2.60740344E-02 -3.69150723E-15 -2.26806668E-01 -1.20272656E-01  1.94795748E-02
  4.26355301E-02 -1.03538515E-02  2.36415319E-02  1.51475134E-01  3.52819339E-01
  6.72264374E-15 -2.69195806E-03  7.05052496E-02  1.27508693E-01  4.42400100E-15
 -2.06191861E-01 -1.73527309E-01 -5.32405368E-03  1.32140680E-03 -1.15690387E-02
  2.58183059E-02 -1.84544968E-01 -3.51431607E-01  6.37199727E-15 -5.04044155E-04
 -8.32695037E-02 -1.27047855E-01  5.01847713E-15 -2.20590060E-01 -1.83061619E-01
  1.17041076E-02  1.19990777E-02 -4.51837426E-16  1.01582298E-15  4.29671292E-14
 -1.69231214E-14 -3.97756648E-01  3.31653379E-15  1.89910477E-14 -6.22988653E-15
 -2.93043434E-01 -1.80613704E-14 -1.45767640E-14  3.06487924E-14  2.25391238E-14
  7.67174743E-15 -1.49489451E-14 -3.31628978E-15  6.83263459E-15 -3.97756648E-01
 -1.06407057E-14 -4.96602610E-15  2.26827457E-15 -2.93043434E-01 -9.36694082E-15
 -5.58229256E-15  4.03708979E-15  1.87228592E-15 -5.11702690E-17  1.77889164E-16
 -1.73727720E-16 -2.04118431E-16 -4.17995488E-01  3.52851922E-16 -6.22138478E-17
 -1.58217520E-16 -6.33082462E-01 -8.85719928E-17 -4.49356958E-16  6.47971640E-17
 -4.09558254E-16 -3.96643182E-17  1.63020384E-16  3.26231088E-16  2.51257639E-16
  4.17995488E-01  6.25988502E-16  3.61449545E-16  2.02809017E-18  6.33082462E-01
  2.97951444E-17 -1.07558518E-15  1.74518678E-17  1.09374013E-16 -9.35234901E-02
  1.38101159E-01  1.21856930E-01 -1.66120178E-01  8.34624461E-17  1.59132332E+00
  2.61990267E-01 -5.33039101E-01  1.76906127E-16 -1.78747403E-02 -6.55356525E-01
 -8.74522258E-02 -1.48668591E+00 -4.24267718E-02  6.88789904E-02  1.66070817E-01
  1.08739657E-01 -2.50341890E-16  7.55398776E-01  5.04949868E-01  4.41597117E-01
 -1.09890184E-16 -6.08424236E-02 -1.20935678E+00  1.00678911E-03  6.80359899E-02
  9.75684854E-02 -1.34451506E-01  1.99580633E-01  1.05128800E-01  5.02975408E-17
 -1.62329492E+00  5.42748555E-01  1.59030977E-01  2.31059355E-16  9.08976012E-02
  1.64970109E+00  6.11171699E-03  1.98767927E-01 -7.53199859E-02  1.03812193E-01
  1.62695328E-01  6.39961577E-02 -1.59349310E-16  1.21996709E+00  4.32662352E-01
 -8.75063660E-03 -7.35932501E-17 -8.11949710E-02 -1.26028440E+00 -9.00102390E-03
 -1.59313941E-02 -2.78462074E-02  1.97115118E-02  3.89006639E-01  1.59630514E-02
 -7.55285504E-17  6.42307889E-01  1.63325111E+00  3.80442850E-01 -1.93893981E-16
 -1.07123139E-02  1.54363883E+00  9.24136227E-03 -1.72778622E+00  5.55020625E-02
 -4.34111240E-02 -2.38509238E-01 -1.60908792E-02 -5.71954387E-17 -1.25237860E+00
 -1.13573497E+00  1.23417881E-01  3.41642836E-16 -2.41053802E-02  1.43961384E+00
 -9.02835269E-02 -3.36028901E-01  7.30587781E-02 -4.67801449E-02  5.28077589E-02
 -2.22321852E-01 -6.16047114E-17 -2.66783566E+00  2.14678208E-01 -2.68288945E+00
  1.91536471E-16 -1.06768723E-01 -3.18441589E-01 -7.11611607E-02 -7.23045665E-01
 -8.15238154E-02  6.25642732E-02 -9.01649075E-02 -2.04922887E-01  2.99661996E-16
  2.77416028E+00 -2.83046763E-01 -2.62154375E+00 -2.95175492E-16  7.35513325E-02
  7.33329839E-01  1.79908647E-03  2.19245248E-01  1.68948447E-02  1.61110162E-01
 -1.51312058E-02  6.01609638E-01 -1.18690619E-15  4.09666056E-01  7.50483530E-02
 -1.04351225E+00  1.22789107E-15 -9.76234783E-02 -7.29368918E-02 -1.05059315E-01
 -1.31433603E-01  1.34681570E-02  1.59077153E-01 -6.83057410E-03 -5.93529718E-01
  3.71595122E-16  4.38468405E-01 -1.12492242E-01  1.16805696E+00 -6.33955591E-16
 -1.11363347E-01 -9.37204330E-02 -8.12925595E-02 -3.19367294E-01 -4.90997457E-18
  8.43891191E-16  1.44224281E-15 -1.71925696E-16 -7.48071717E-01 -2.19551461E-15
 -5.17725329E-15  1.15032710E-16  6.48987208E-01 -3.10510600E-16 -2.54849986E-15
  1.96410481E-17  3.66068513E-15  2.69115740E-17  2.11079262E-16 -1.12572313E-16
  4.20781880E-16 -7.48071717E-01 -9.42831684E-16  1.74322265E-15 -1.65140698E-15
  6.48987208E-01  9.38684031E-16 -3.67556007E-16  3.74955837E-16  1.32063859E-15
 -4.41671039E-03  1.13018901E-01  4.24954143E-01  7.74213083E-02 -2.41073987E-15
 -8.10552001E-02 -9.16555836E-01  3.88446139E-02  3.97695513E-15 -3.25553083E-01
 -2.38247067E-01  3.89339122E-01  3.16508456E-01  1.68188726E-02  5.49881585E-02
  5.70094511E-01 -5.19214762E-03  4.26497963E-15 -1.53356986E-01 -1.19503768E+00
  3.30606896E-02 -5.55234854E-15  4.68096083E-01  3.48641122E-01 -1.09368135E-01
 -5.55329997E-01  1.19076490E-16  1.18726334E-15  1.21974069E-15  8.23924627E-16
  7.85819962E-01 -1.14254443E-15 -1.95535334E-15 -1.19798452E-15 -1.11966931E+00
 -6.58278618E-16 -4.63473902E-16  2.22230440E-15  1.41016508E-16  5.35995979E-17
  2.31652410E-15  2.48799252E-15 -1.19407067E-15 -7.85819962E-01 -2.65103523E-15
 -6.47253158E-15  9.39534788E-16  1.11966931E+00  2.33551316E-15  2.67243480E-15
 -5.47847883E-16 -2.34342216E-15 -5.89430338E-02 -8.53929152E-01  2.87571695E-03
  1.86474216E-01  8.01007835E-16  1.64854348E+00  6.69628297E-02 -4.07038171E-01
 -1.57801158E-15 -5.82311748E-01 -1.79685165E-01 -5.35344787E-01 -2.15933360E-01
  1.31139047E-02 -9.14955920E-01  1.94360845E-01  3.25779805E-01 -1.22515284E-15
  1.22158487E+00 -4.45370687E-01  1.21667502E-01  1.96946079E-15 -2.40600985E-01
  4.31273795E-03 -1.16635203E-01 -6.10506525E-01 -6.48612889E-02  3.42469271E-01
  2.93106316E-02  7.35171491E-01  6.91823584E-16 -7.50900088E-02 -2.45010792E-01
 -6.67120600E-01 -3.75112160E-16 -1.39196456E-01 -1.94246286E-01 -1.91796940E-01
 -1.06557502E-02  8.19406722E-02  4.94544860E-01 -3.11597190E-01  7.18871767E-01
  5.48350768E-16 -1.38896421E+00  8.36680293E-01 -9.55239607E-01 -7.13872854E-16
  4.64053353E-01 -8.40756783E-02  2.17526254E-01  1.13115221E+00 -1.72258091E-03
  1.61561978E-01 -1.06435204E+00  9.91122585E-02 -1.45257438E-15 -2.90667363E-01
  2.99690347E+00 -1.56399616E-01  1.36438065E-15 -3.75488889E-01  1.86323504E+00
  4.21877172E-01 -1.89904448E+00 -1.18154816E-02  3.61145335E-01  4.60596518E-01
  2.27312825E-01 -8.03242609E-16 -4.93607710E-01 -2.19289587E+00 -3.44394124E-01
  5.98410287E-16 -1.17660899E-01  1.37025300E+00 -2.07804680E-01 -6.80817958E-01
  8.85570986E-05 -3.13784882E-01 -3.70004155E-01 -1.48680613E-01  1.64429321E-16
  5.87143133E-01  2.32537253E-01  3.39597269E-01  1.40281334E-16 -4.15639618E-01
  5.89409267E-01  3.76001192E-01 -5.15911822E-01  2.73632016E-02 -7.87680396E-01
 -6.20452300E-01 -4.27366495E-01 -3.00561117E-16  1.19748959E+00  1.16092104E+00
  7.35511894E-01  6.00857732E-17  8.89791616E-01 -1.96360410E+00  3.26343409E-02
  1.29052156E-01 -4.51061355E-02  1.15775354E+00 -7.08269461E-03 -6.25751494E-01
  6.92880524E-16 -1.74722627E+00 -1.70215053E-02  1.07941847E+00 -2.21309142E-16
 -7.44830980E-01  1.39422733E+00 -7.11994087E-01  1.37340929E+00  2.52940684E-03
  4.08382428E-01 -3.44740411E-02 -2.10001996E-01  1.31130472E-16 -7.82108771E-01
  7.00034735E-02  5.23223132E-01 -6.22704842E-16  6.15537843E-02 -1.52236164E-01
  2.32397855E-02 -4.60225489E-02  2.16879361E-02  1.61709322E+00  5.05456966E-03
  3.03143475E-01  4.15716092E-16 -5.35449097E+00  2.09202753E-02 -1.85441690E+00
 -7.58838293E-16  2.19736342E-01  3.29418570E-01  1.99247624E-01  3.30832208E-01
 -2.16243728E-02 -1.64130627E+00  9.56357760E-03  2.97527035E-01 -2.81651613E-16
  5.41130231E+00 -6.25876200E-02 -1.84145020E+00  5.26854597E-16 -1.95583522E-01
 -3.19606623E-01 -1.87420584E-01 -4.14645589E-01  3.03922237E-03  5.83724477E-02
  1.29563860E-01  3.07393447E-02  5.25929135E-16 -1.49439529E-01 -3.03805934E+00
 -1.27913574E-01 -8.89249150E-16 -7.82971680E-01 -8.98451412E-01  8.11141842E-01
  8.33574908E-01 -1.56179632E-02  1.85047065E-01 -3.01370881E-01  1.17838384E-01
  1.01135101E-16 -1.76670276E-01  3.21837658E+00 -1.71917906E-01  5.51024828E-16
 -8.08231087E-01 -8.77844127E-01  4.37001657E-01  1.34133898E+00  1.17629200E-03
  2.86649650E-02  4.16380610E-02  3.77028290E-02  0.00000000E+00  1.18016860E-02
 -1.00079660E-02  6.16288800E-03  0.00000000E+00  2.02908550E-02 -1.22817510E-02
  8.50617600E-03  1.25338710E-02 -3.24276200E-03  2.00380834E-01 -2.91845494E-01
  1.59554403E-01  0.00000000E+00  2.17627384E-01 -1.67897026E-01  1.05214716E-01
  0.00000000E+00  3.75690800E-02  8.47780100E-03 -9.10416308E-01 -5.62417396E-01
  1.00991710E-02  3.10434030E-02  6.84989700E-03 -1.05247440E-02  0.00000000E+00
 -2.73776547E-01 -4.24366966E-01 -3.08709888E-01  0.00000000E+00 -3.95175940E-02
 -2.99020623E-01  3.45711030E-02  5.47837920E-02  1.53106590E-02  2.14525382E-01
 -1.56170517E-01  5.24796640E-02  0.00000000E+00 -1.04695191E+00  1.28661927E+00
 -6.61665584E-01  0.00000000E+00 -5.44909850E-02 -3.27718452E-01 -9.25934284E-01
  2.74169876E+00
Total SCF Density                          R   N=         351
  2.06242745E+00 -9.27257784E-02  3.17261243E-01  1.89802573E-05 -4.55806076E-05
  4.15636517E-01  1.95422519E-04  1.21879817E-03 -7.61157377E-05  4.20125553E-01
  0.00000000E+00  0.00000000E+00  0.00000000E+00  0.00000000E+00  3.16420721E-01
 -1.86642599E-01  2.62848100E-01 -2.81599686E-05 -3.96681224E-02  0.00000000E+00
  2.30245044E-01  4.72983580E-05 -1.81215309E-04  1.74854299E-01 -3.07801615E-04
  0.00000000E+00 -1.20994672E-04  7.41111243E-02  3.02162375E-03 -1.57369012E-02
 -1.17578390E-04  1.45262033E-01  0.00000000E+00 -2.55275374E-02 -1.42863432E-04
  5.18973122E-02  0.00000000E+00  0.00000000E+00  0.00000000E+00  0.00000000E+00
  2.33119951E-01  0.00000000E+00  0.00000000E+00  0.00000000E+00  1.71748902E-01
 -6.40328942E-02  1.21608882E-01 -2.30252515E-01 -1.36263299E-01  0.00000000E+00
  1.15433208E-01 -9.81025293E-02 -5.32882393E-02  0.00000000E+00  2.21975629E-01
 -1.04109927E-02  3.88128323E-02 -1.74983026E-01 -1.02441522E-01  0.00000000E+00
  4.14294902E-02 -7.54094127E-02 -3.77056180E-02  0.00000000E+00  1.49449877E-01
  1.09797894E-01 -6.38765331E-02  1.21279901E-01  2.30958746E-01 -1.35572089E-01
  0.00000000E+00  1.15071348E-01  9.84529657E-02 -5.31725386E-02  0.00000000E+00
 -3.96863551E-02 -5.33940241E-02  2.22034679E-01 -1.02895399E-02  3.86056968E-02
  1.75599111E-01 -1.02201044E-01  0.00000000E+00  4.11907419E-02  7.57649101E-02
 -3.77499815E-02  0.00000000E+00 -5.33900295E-02 -5.02134695E-02  1.49705194E-01
  1.10154223E-01  1.85150166E-02 -3.92235320E-02  8.62470619E-05 -8.39822868E-02
  0.00000000E+00  9.43543716E-03  1.20354112E-04 -1.03217113E-02  0.00000000E+00
  1.18252308E-02  1.26885524E-02  1.17973778E-02  1.26571533E-02  2.06242745E+00
 -3.92235320E-02  6.47382726E-02 -2.56775430E-04  1.64516350E-01  0.00000000E+00
  1.58858344E-02 -2.74978919E-04  4.01968136E-02  0.00000000E+00 -2.72789393E-02
 -2.59208750E-02 -2.73060254E-02 -2.59297485E-02 -9.27257784E-02  3.17261243E-01
 -8.62470619E-05  2.56775430E-04  1.99307692E-02  4.43451161E-04  0.00000000E+00
  3.12069322E-04 -6.73609650E-03  3.58767113E-04  0.00000000E+00  2.36048409E-02
  4.20568068E-02 -2.36287565E-02 -4.22735573E-02 -1.89802573E-05  4.55806076E-05
  4.15636517E-01  8.39822868E-02 -1.64516350E-01  4.43451161E-04 -3.13316920E-01
  0.00000000E+00 -1.23539958E-01  4.40578482E-04 -1.09054962E-01  0.00000000E+00
  3.86624962E-02  6.01976330E-02  3.86488973E-02  6.03964307E-02 -1.95422519E-04
 -1.21879817E-03 -7.61157377E-05  4.20125553E-01  0.00000000E+00  0.00000000E+00
  0.00000000E+00  0.00000000E+00  3.16420721E-01  0.00000000E+00  0.00000000E+00
  0.00000000E+00  2.33119951E-01  0.00000000E+00  0.00000000E+00  0.00000000E+00
  0.00000000E+00  0.00000000E+00  0.00000000E+00  0.00000000E+00  0.00000000E+00
  3.16420721E-01  9.43543716E-03  1.58858344E-02 -3.12069322E-04  1.23539958E-01
  0.00000000E+00 -2.14459736E-02 -2.45701676E-04  2.92799990E-02  0.00000000E+00
 -3.32740908E-02 -2.25193179E-02 -3.34042153E-02 -2.26026483E-02 -1.86642599E-01
  2.62848100E-01  2.81599686E-05  3.96681224E-02  0.00000000E+00  2.30245044E-01
 -1.20354112E-04  2.74978919E-04 -6.73609650E-03  4.40578482E-04  0.00000000E+00
  2.45701676E-04 -9.22165333E-03  2.33210787E-04  0.00000000E+00  1.83498329E-02
  2.41065272E-02 -1.84205472E-02 -2.43012133E-02 -4.72983580E-05  1.81215309E-04
  1.74854299E-01 -3.07801615E-04  0.00000000E+00  1.20994672E-04  7.41111243E-02
  1.03217113E-02 -4.01968136E-02  3.58767113E-04 -1.09054962E-01  0.00000000E+00
 -2.92799990E-02  2.33210787E-04 -3.95067352E-02  0.00000000E+00  2.01404059E-02
  2.32723191E-02  2.03653739E-02  2.35367172E-02 -3.02162375E-03  1.57369012E-02
 -1.17578390E-04  1.45262033E-01  0.00000000E+00  2.55275374E-02 -1.42863432E-04
  5.18973122E-02  0.00000000E+00  0.00000000E+00  0.00000000E+00  0.00000000E+00
  2.33119951E-01  0.00000000E+00  0.00000000E+00  0.00000000E+00  1.71748902E-01
  0.00000000E+00  0.00000000E+00  0.00000000E+00  0.00000000E+00  0.00000000E+00
  0.00000000E+00  0.00000000E+00  0.00000000E+00  2.33119951E-01  0.00000000E+00
  0.00000000E+00  0.00000000E+00  1.71748902E-01  1.18252308E-02 -2.72789393E-02
 -2.36048409E-02 -3.86624962E-02  0.00000000E+00 -3.32740908E-02 -1.83498329E-02
 -2.01404059E-02  0.00000000E+00  3.50658578E-02  4.79496525E-02 -2.98916555E-02
 -2.83756578E-02 -6.40328942E-02  1.21608882E-01  2.30252515E-01  1.36263299E-01
  0.00000000E+00  1.15433208E-01  9.81025293E-02  5.32882393E-02  0.00000000E+00
  2.21975629E-01  1.26885524E-02 -2.59208750E-02 -4.20568068E-02 -6.01976330E-02
  0.00000000E+00 -2.25193179E-02 -2.41065272E-02 -2.32723191E-02  0.00000000E+00
  4.79496525E-02  5.25607308E-02 -2.84271118E-02 -2.61114643E-02 -1.04109927E-02
  3.88128323E-02  1.74983026E-01  1.02441522E-01  0.00000000E+00  4.14294902E-02
  7.54094127E-02  3.77056180E-02  0.00000000E+00  1.49449877E-01  1.09797894E-01
  1.17973778E-02 -2.73060254E-02  2.36287565E-02 -3.86488973E-02  0.00000000E+00
 -3.34042153E-02  1.84205472E-02 -2.03653739E-02  0.00000000E+00 -2.98916555E-02
 -2.84271118E-02  3.50746726E-02  4.81314854E-02 -6.38765331E-02  1.21279901E-01
 -2.30958746E-01  1.35572089E-01  0.00000000E+00  1.15071348E-01 -9.84529657E-02
  5.31725386E-02  0.00000000E+00 -3.96863551E-02 -5.33940241E-02  2.22034679E-01
  1.26571533E-02 -2.59297485E-02  4.22735573E-02 -6.03964307E-02  0.00000000E+00
 -2.26026483E-02  2.43012133E-02 -2.35367172E-02  0.00000000E+00 -2.83756578E-02
 -2.61114643E-02  4.81314854E-02  5.28416797E-02 -1.02895399E-02  3.86056968E-02
 -1.75599111E-01  1.02201044E-01  0.00000000E+00  4.11907419E-02 -7.57649101E-02
  3.77499815E-02  0.00000000E+00 -5.33900295E-02 -5.02134695E-02  1.49705194E-01
  1.10154223E-01
Mulliken Charges                           R   N=           6
 -3.20988959E-01  1.60701890E-01  1.60287069E-01 -3.20988959E-01  1.60701890E-01
  1.60287069E-01
NPA Charges                                R   N=           6
 -4.54057471E-01  2.27190802E-01  2.26866668E-01 -4.54057471E-01  2.27190802E-01
  2.26866668E-01
ONIOM Charges                              I   N=          16
           0           0           0           0           0           0
           0           0           0           0           0           0
           0           0           0           0
ONIOM Multiplicities                       I   N=          16
           1           0           0           0           0           0